 Q-Chem 5.4 (devel), Q-Chem, Inc., Pleasanton, CA (2021)
 Q-Chem 5.4.1 for Intel X86 EM64T Linux

User input:
--------------------------------------------------------------
$comment
generated from CCJob.Templates
$end

$rem
sym_ignore = true
method = adc(2)
ee_states = 10
basis = cc-pVDZ
mem_static = 1024
mem_total = 40000
adc_davidson_maxiter = 900
adc_davidson_conv = 6
adc_print = 3
adc_prop_es = true
adc_prop_es2es = true
adc_prop_tpa = true
molden_format = True
state_analysis = true
print_orbitals = 15
gen_scfman = false
fde_export_density = true
fde_details = 3
$end

$molecule
0 1
H -0.0348278765 -0.2442097827 0.0636489606
C -1.0665972949 -0.5242748755 -0.0023551776
H -1.313264467 -1.5767591607 -0.0757276926
C -2.043634118 0.3926884087 0.0061254933
H -1.8137616575 1.4459188338 0.0804456828
H -3.085977293 0.114931858 -0.0593381042
$end
--------------------------------------------------------------

             Standard Nuclear Orientation (Angstroms)
    I     Atom           X                Y                Z
 ----------------------------------------------------------------
    1      H      -0.0348278765    -0.2442097827     0.0636489606
    2      C      -1.0665972949    -0.5242748755    -0.0023551776
    3      H      -1.3132644670    -1.5767591607    -0.0757276926
    4      C      -2.0436341180     0.3926884087     0.0061254933
    5      H      -1.8137616575     1.4459188338     0.0804456828
    6      H      -3.0859772930     0.1149318580    -0.0593381042
 ----------------------------------------------------------------

   11     -78.0394896107      8.25E-09 Convergence criterion met
 Total energy in the final basis set = -78.03948961
  Excited state 1 (singlet, A)                                     [converged]
  Term symbol:  2 (1) A                                     R^2 =  4.55976e-13
  Excitation energy:                                               8.674117 eV
  Excited state 2 (singlet, A)                                     [converged]
  Term symbol:  3 (1) A                                     R^2 =  3.61171e-13
  Excitation energy:                                               9.053429 eV
  Excited state 3 (singlet, A)                                     [converged]
  Term symbol:  4 (1) A                                     R^2 =  3.83209e-13
  Excitation energy:                                               9.139863 eV
  Excited state 4 (singlet, A)                                     [converged]
  Term symbol:  5 (1) A                                     R^2 =  2.44802e-13
  Excitation energy:                                               9.830669 eV
  Excited state 5 (singlet, A)                                     [converged]
  Term symbol:  6 (1) A                                     R^2 =  2.41203e-13
  Excitation energy:                                              10.162483 eV
  Excited state 6 (singlet, A)                                     [converged]
  Term symbol:  7 (1) A                                     R^2 =  3.28147e-13
  Excitation energy:                                              10.483142 eV
  Excited state 7 (singlet, A)                                     [converged]
  Term symbol:  8 (1) A                                     R^2 =  1.77588e-11
  Excitation energy:                                              11.596038 eV
  Excited state 8 (singlet, A)                                     [converged]
  Term symbol:  9 (1) A                                     R^2 =  9.91446e-13
  Excitation energy:                                              12.127311 eV
  Excited state 9 (singlet, A)                                     [converged]
  Term symbol:  10 (1) A                                    R^2 =  1.53197e-11
  Excitation energy:                                              12.378559 eV
  Excited state 10 (singlet, A)                                     [converged]
  Term symbol:  11 (1) A                                    R^2 =  8.02831e-07
  Excitation energy:                                              12.705850 eV
  Excitation energy:                                               0.379313 eV
  Excitation energy:                                               0.465746 eV
  Excitation energy:                                               0.086433 eV
  Excitation energy:                                               1.156552 eV
  Excitation energy:                                               0.777240 eV
  Excitation energy:                                               0.690806 eV
  Excitation energy:                                               1.488366 eV
  Excitation energy:                                               1.109053 eV
  Excitation energy:                                               1.022620 eV
  Excitation energy:                                               0.331814 eV
  Excitation energy:                                               1.809026 eV
  Excitation energy:                                               1.429713 eV
  Excitation energy:                                               1.343280 eV
  Excitation energy:                                               0.652473 eV
  Excitation energy:                                               0.320660 eV
  Excitation energy:                                               2.921921 eV
  Excitation energy:                                               2.542608 eV
  Excitation energy:                                               2.456175 eV
  Excitation energy:                                               1.765369 eV
  Excitation energy:                                               1.433555 eV
  Excitation energy:                                               1.112895 eV
  Excitation energy:                                               3.453194 eV
  Excitation energy:                                               3.073882 eV
  Excitation energy:                                               2.987448 eV
  Excitation energy:                                               2.296642 eV
  Excitation energy:                                               1.964828 eV
  Excitation energy:                                               1.644169 eV
  Excitation energy:                                               0.531273 eV
  Excitation energy:                                               3.704442 eV
  Excitation energy:                                               3.325129 eV
  Excitation energy:                                               3.238696 eV
  Excitation energy:                                               2.547890 eV
  Excitation energy:                                               2.216076 eV
  Excitation energy:                                               1.895416 eV
  Excitation energy:                                               0.782521 eV
  Excitation energy:                                               0.251247 eV
  Excitation energy:                                               4.031733 eV
  Excitation energy:                                               3.652420 eV
  Excitation energy:                                               3.565987 eV
  Excitation energy:                                               2.875181 eV
  Excitation energy:                                               2.543367 eV
  Excitation energy:                                               2.222707 eV
  Excitation energy:                                               1.109812 eV
  Excitation energy:                                               0.578539 eV
  Excitation energy:                                               0.327291 eV

                    Orbital Energies (a.u.)
 --------------------------------------------------------------

 Alpha MOs
 -- Occupied --
-11.2358 -11.2341  -1.0305  -0.7910  -0.6415  -0.5804  -0.5066  -0.3722

          Ground-State Mulliken Net Atomic Charges

     Atom                 Charge (a.u.)
  ----------------------------------------
      1 H                     0.046736
      2 C                    -0.092233
      3 H                     0.048475
      4 C                    -0.098763
      5 H                     0.047337
      6 H                     0.048448
  ----------------------------------------
  Sum of atomic charges =     0.000000

                    Cartesian Multipole Moments
 -----------------------------------------------------------------
    Charge (ESU x 10^10)
                 0.0000
    Dipole Moment (Debye)
         X       0.0000      Y       0.0051      Z       0.0021
       Tot       0.0055
    Quadrupole Moments (Debye-Ang)
        XX     -12.1835     XY      -0.0556     YY     -12.2926
        XZ       0.1546     YZ       0.1931     ZZ     -15.5607

 Total job time:  78.29s(wall), 201.96s(cpu)
        *  Thank you very much for using Q-Chem.  Have a nice day.  *
