 Q-Chem 5.4 (devel), Q-Chem, Inc., Pleasanton, CA (2021)
 Q-Chem 5.4.1 for Intel X86 EM64T Linux

User input:
--------------------------------------------------------------
$comment
generated from CCJob.Templates
$end

$rem
sym_ignore = true
method = adc(2)
ee_states = 10
basis = cc-pVDZ
mem_static = 1024
mem_total = 40000
adc_davidson_maxiter = 900
adc_davidson_conv = 6
adc_print = 3
adc_prop_es = true
adc_prop_es2es = true
adc_prop_tpa = true
molden_format = True
state_analysis = true
print_orbitals = 15
gen_scfman = false
fde_export_density = true
fde_details = 3
$end

$molecule
0 1
H -0.013149655361555027 -0.2629666663540441 0.06060690517165233
C -1.061125866323369 -0.5369841756567997 -0.002319740398771043
H -1.3094507809342197 -1.5944482722399353 -0.07052081829625888
C -1.9896082792339473 0.42177647919318856 -0.0038796403978574485
H -1.7924118470738022 1.4683384014664134 0.07172028371029773
H -3.088683874746458 0.13685631598052897 -0.05930878795761574
$end
--------------------------------------------------------------

             Standard Nuclear Orientation (Angstroms)
    I     Atom           X                Y                Z
 ----------------------------------------------------------------
    1      H      -0.0131496554    -0.2629666664     0.0606069052
    2      C      -1.0611258663    -0.5369841757    -0.0023197404
    3      H      -1.3094507809    -1.5944482722    -0.0705208183
    4      C      -1.9896082792     0.4217764792    -0.0038796404
    5      H      -1.7924118471     1.4683384015     0.0717202837
    6      H      -3.0886838747     0.1368563160    -0.0593087880
 ----------------------------------------------------------------

   11     -78.0374527272      6.63E-09 Convergence criterion met
 Total energy in the final basis set = -78.03745273
  Excited state 1 (singlet, A)                                     [converged]
  Term symbol:  2 (1) A                                     R^2 =  2.75233e-13
  Excitation energy:                                               8.721099 eV
  Excited state 2 (singlet, A)                                     [converged]
  Term symbol:  3 (1) A                                     R^2 =  5.10263e-13
  Excitation energy:                                               8.889705 eV
  Excited state 3 (singlet, A)                                     [converged]
  Term symbol:  4 (1) A                                     R^2 =  2.06159e-13
  Excitation energy:                                               9.115719 eV
  Excited state 4 (singlet, A)                                     [converged]
  Term symbol:  5 (1) A                                     R^2 =  6.35381e-13
  Excitation energy:                                               9.747482 eV
  Excited state 5 (singlet, A)                                     [converged]
  Term symbol:  6 (1) A                                     R^2 =  1.15028e-13
  Excitation energy:                                              10.166908 eV
  Excited state 6 (singlet, A)                                     [converged]
  Term symbol:  7 (1) A                                     R^2 =  3.77039e-13
  Excitation energy:                                              10.539407 eV
  Excited state 7 (singlet, A)                                     [converged]
  Term symbol:  8 (1) A                                     R^2 =  7.14290e-11
  Excitation energy:                                              11.382256 eV
  Excited state 8 (singlet, A)                                     [converged]
  Term symbol:  9 (1) A                                     R^2 =  2.05597e-09
  Excitation energy:                                              12.053970 eV
  Excited state 9 (singlet, A)                                     [converged]
  Term symbol:  10 (1) A                                    R^2 =  4.01899e-08
  Excitation energy:                                              12.329147 eV
  Excited state 10 (singlet, A)                                     [converged]
  Term symbol:  11 (1) A                                    R^2 =  9.77184e-07
  Excitation energy:                                              12.440439 eV
  Excitation energy:                                               0.168606 eV
  Excitation energy:                                               0.394620 eV
  Excitation energy:                                               0.226014 eV
  Excitation energy:                                               1.026383 eV
  Excitation energy:                                               0.857777 eV
  Excitation energy:                                               0.631763 eV
  Excitation energy:                                               1.445809 eV
  Excitation energy:                                               1.277203 eV
  Excitation energy:                                               1.051190 eV
  Excitation energy:                                               0.419426 eV
  Excitation energy:                                               1.818308 eV
  Excitation energy:                                               1.649702 eV
  Excitation energy:                                               1.423689 eV
  Excitation energy:                                               0.791925 eV
  Excitation energy:                                               0.372499 eV
  Excitation energy:                                               2.661157 eV
  Excitation energy:                                               2.492551 eV
  Excitation energy:                                               2.266537 eV
  Excitation energy:                                               1.634774 eV
  Excitation energy:                                               1.215347 eV
  Excitation energy:                                               0.842848 eV
  Excitation energy:                                               3.332871 eV
  Excitation energy:                                               3.164265 eV
  Excitation energy:                                               2.938251 eV
  Excitation energy:                                               2.306488 eV
  Excitation energy:                                               1.887062 eV
  Excitation energy:                                               1.514563 eV
  Excitation energy:                                               0.671714 eV
  Excitation energy:                                               3.608048 eV
  Excitation energy:                                               3.439442 eV
  Excitation energy:                                               3.213429 eV
  Excitation energy:                                               2.581665 eV
  Excitation energy:                                               2.162239 eV
  Excitation energy:                                               1.789740 eV
  Excitation energy:                                               0.946892 eV
  Excitation energy:                                               0.275177 eV
  Excitation energy:                                               3.719340 eV
  Excitation energy:                                               3.550734 eV
  Excitation energy:                                               3.324720 eV
  Excitation energy:                                               2.692957 eV
  Excitation energy:                                               2.273530 eV
  Excitation energy:                                               1.901031 eV
  Excitation energy:                                               1.058183 eV
  Excitation energy:                                               0.386469 eV
  Excitation energy:                                               0.111291 eV

                    Orbital Energies (a.u.)
 --------------------------------------------------------------

 Alpha MOs
 -- Occupied --
-11.2400 -11.2368  -1.0298  -0.7869  -0.6352  -0.5836  -0.4975  -0.3743

          Ground-State Mulliken Net Atomic Charges

     Atom                 Charge (a.u.)
  ----------------------------------------
      1 H                     0.049175
      2 C                    -0.092355
      3 H                     0.053763
      4 C                    -0.114614
      5 H                     0.048221
      6 H                     0.055809
  ----------------------------------------
  Sum of atomic charges =     0.000000

                    Cartesian Multipole Moments
 -----------------------------------------------------------------
    Charge (ESU x 10^10)
                -0.0000
    Dipole Moment (Debye)
         X       0.0246      Y       0.0173      Z       0.0165
       Tot       0.0343
    Quadrupole Moments (Debye-Ang)
        XX     -12.5106     XY      -0.1326     YY     -12.0819
        XZ       0.1089     YZ       0.1906     ZZ     -15.6178

 Total job time:  154.22s(wall), 461.05s(cpu)
        *  Thank you very much for using Q-Chem.  Have a nice day.  *
