 Q-Chem 5.4 (devel), Q-Chem, Inc., Pleasanton, CA (2021)
 Q-Chem 5.4.1 for Intel X86 EM64T Linux

User input:
--------------------------------------------------------------
$comment
generated from CCJob.Templates
$end

$rem
sym_ignore = true
method = adc(2)
ee_states = 10
basis = cc-pVDZ
mem_static = 1024
mem_total = 40000
adc_davidson_maxiter = 900
adc_davidson_conv = 6
adc_print = 3
adc_prop_es = true
adc_prop_es2es = true
adc_prop_tpa = true
molden_format = True
state_analysis = true
print_orbitals = 15
gen_scfman = false
fde_export_density = true
fde_details = 3
$end

$molecule
0 1
H -0.022069031797084564 -0.24828634239438593 0.0652335333402507
C -1.080264783688407 -0.526742132177022 -0.00238335640767658
H -1.3025153731956678 -1.5935747364011492 -0.07782361454819606
C -2.04522654497622 0.3935056782727113 0.006626711906323666
H -1.82101217571286 1.4622397052101066 0.08204931604780195
H -3.1014297472114465 0.11695056360333272 -0.06090909604064329
$end
--------------------------------------------------------------

             Standard Nuclear Orientation (Angstroms)
    I     Atom           X                Y                Z
 ----------------------------------------------------------------
    1      H      -0.0220690318    -0.2482863424     0.0652335333
    2      C      -1.0802647837    -0.5267421322    -0.0023833564
    3      H      -1.3025153732    -1.5935747364    -0.0778236145
    4      C      -2.0452265450     0.3935056783     0.0066267119
    5      H      -1.8210121757     1.4622397052     0.0820493160
    6      H      -3.1014297472     0.1169505636    -0.0609090960
 ----------------------------------------------------------------

   11     -78.0396456029      1.25E-09 Convergence criterion met
 Total energy in the final basis set = -78.03964560
  Excited state 1 (singlet, A)                                     [converged]
  Term symbol:  2 (1) A                                     R^2 =  1.37487e-13
  Excitation energy:                                               8.731791 eV
  Excited state 2 (singlet, A)                                     [converged]
  Term symbol:  3 (1) A                                     R^2 =  1.16155e-13
  Excitation energy:                                               8.952300 eV
  Excited state 3 (singlet, A)                                     [converged]
  Term symbol:  4 (1) A                                     R^2 =  2.20049e-13
  Excitation energy:                                               9.141581 eV
  Excited state 4 (singlet, A)                                     [converged]
  Term symbol:  5 (1) A                                     R^2 =  3.15512e-13
  Excitation energy:                                               9.738305 eV
  Excited state 5 (singlet, A)                                     [converged]
  Term symbol:  6 (1) A                                     R^2 =  2.29853e-13
  Excitation energy:                                              10.158489 eV
  Excited state 6 (singlet, A)                                     [converged]
  Term symbol:  7 (1) A                                     R^2 =  8.40374e-13
  Excitation energy:                                              10.520901 eV
  Excited state 7 (singlet, A)                                     [converged]
  Term symbol:  8 (1) A                                     R^2 =  1.73121e-10
  Excitation energy:                                              11.433716 eV
  Excited state 8 (singlet, A)                                     [converged]
  Term symbol:  9 (1) A                                     R^2 =  7.70028e-10
  Excitation energy:                                              12.068246 eV
  Excited state 9 (singlet, A)                                     [converged]
  Term symbol:  10 (1) A                                    R^2 =  8.03818e-09
  Excitation energy:                                              12.346787 eV
  Excited state 10 (singlet, A)                                     [converged]
  Term symbol:  11 (1) A                                    R^2 =  6.89122e-07
  Excitation energy:                                              12.476725 eV
  Excitation energy:                                               0.220508 eV
  Excitation energy:                                               0.409789 eV
  Excitation energy:                                               0.189281 eV
  Excitation energy:                                               1.006513 eV
  Excitation energy:                                               0.786005 eV
  Excitation energy:                                               0.596724 eV
  Excitation energy:                                               1.426698 eV
  Excitation energy:                                               1.206189 eV
  Excitation energy:                                               1.016908 eV
  Excitation energy:                                               0.420184 eV
  Excitation energy:                                               1.789110 eV
  Excitation energy:                                               1.568602 eV
  Excitation energy:                                               1.379321 eV
  Excitation energy:                                               0.782597 eV
  Excitation energy:                                               0.362412 eV
  Excitation energy:                                               2.701925 eV
  Excitation energy:                                               2.481416 eV
  Excitation energy:                                               2.292135 eV
  Excitation energy:                                               1.695411 eV
  Excitation energy:                                               1.275227 eV
  Excitation energy:                                               0.912814 eV
  Excitation energy:                                               3.336455 eV
  Excitation energy:                                               3.115947 eV
  Excitation energy:                                               2.926666 eV
  Excitation energy:                                               2.329942 eV
  Excitation energy:                                               1.909757 eV
  Excitation energy:                                               1.547345 eV
  Excitation energy:                                               0.634531 eV
  Excitation energy:                                               3.614995 eV
  Excitation energy:                                               3.394487 eV
  Excitation energy:                                               3.205206 eV
  Excitation energy:                                               2.608482 eV
  Excitation energy:                                               2.188298 eV
  Excitation energy:                                               1.825885 eV
  Excitation energy:                                               0.913071 eV
  Excitation energy:                                               0.278540 eV
  Excitation energy:                                               3.744934 eV
  Excitation energy:                                               3.524426 eV
  Excitation energy:                                               3.335145 eV
  Excitation energy:                                               2.738421 eV
  Excitation energy:                                               2.318237 eV
  Excitation energy:                                               1.955824 eV
  Excitation energy:                                               1.043010 eV
  Excitation energy:                                               0.408479 eV
  Excitation energy:                                               0.129939 eV

                    Orbital Energies (a.u.)
 --------------------------------------------------------------

 Alpha MOs
 -- Occupied --
-11.2388 -11.2372  -1.0299  -0.7859  -0.6350  -0.5823  -0.4995  -0.3744

          Ground-State Mulliken Net Atomic Charges

     Atom                 Charge (a.u.)
  ----------------------------------------
      1 H                     0.052657
      2 C                    -0.104800
      3 H                     0.052096
      4 C                    -0.104691
      5 H                     0.052545
      6 H                     0.052193
  ----------------------------------------
  Sum of atomic charges =     0.000000

                    Cartesian Multipole Moments
 -----------------------------------------------------------------
    Charge (ESU x 10^10)
                -0.0000
    Dipole Moment (Debye)
         X      -0.0012      Y      -0.0012      Z      -0.0004
       Tot       0.0018
    Quadrupole Moments (Debye-Ang)
        XX     -12.2508     XY      -0.1037     YY     -12.2503
        XZ       0.1565     YZ       0.1994     ZZ     -15.6097

 Total job time:  146.46s(wall), 439.46s(cpu)
        *  Thank you very much for using Q-Chem.  Have a nice day.  *
