 Q-Chem 5.4 (devel), Q-Chem, Inc., Pleasanton, CA (2021)
 Q-Chem 5.4.1 for Intel X86 EM64T Linux

User input:
--------------------------------------------------------------
$comment
generated from CCJob.Templates
$end

$rem
sym_ignore = true
method = adc(2)
ee_states = 10
basis = cc-pVDZ
mem_static = 1024
mem_total = 40000
adc_davidson_maxiter = 900
adc_davidson_conv = 6
adc_print = 3
adc_prop_es = true
adc_prop_es2es = true
adc_prop_tpa = true
molden_format = True
state_analysis = true
print_orbitals = 15
gen_scfman = false
fde_export_density = true
fde_details = 3
$end

$molecule
0 1
H -0.02112707158807775 -0.2477761659227022 0.06490090529358261
C -1.0770720347761684 -0.52504708331784 -0.002360856399938552
H -1.301614724711711 -1.5931121922019966 -0.07733718248981294
C -2.0420021487216973 0.3952395584396594 0.006085479885107128
H -1.8200531238586901 1.4627708693083206 0.08141256398551489
H -3.100511983082323 0.11743413542902645 -0.060726795997880785
$end
--------------------------------------------------------------

             Standard Nuclear Orientation (Angstroms)
    I     Atom           X                Y                Z
 ----------------------------------------------------------------
    1      H      -0.0211270716    -0.2477761659     0.0649009053
    2      C      -1.0770720348    -0.5250470833    -0.0023608564
    3      H      -1.3016147247    -1.5931121922    -0.0773371825
    4      C      -2.0420021487     0.3952395584     0.0060854799
    5      H      -1.8200531239     1.4627708693     0.0814125640
    6      H      -3.1005119831     0.1174341354    -0.0607267960
 ----------------------------------------------------------------

   11     -78.0396463813      3.47E-09 Convergence criterion met
 Total energy in the final basis set = -78.03964638
  Excited state 1 (singlet, A)                                     [converged]
  Term symbol:  2 (1) A                                     R^2 =  2.24898e-13
  Excitation energy:                                               8.731788 eV
  Excited state 2 (singlet, A)                                     [converged]
  Term symbol:  3 (1) A                                     R^2 =  3.32702e-13
  Excitation energy:                                               8.952307 eV
  Excited state 3 (singlet, A)                                     [converged]
  Term symbol:  4 (1) A                                     R^2 =  8.09619e-14
  Excitation energy:                                               9.141606 eV
  Excited state 4 (singlet, A)                                     [converged]
  Term symbol:  5 (1) A                                     R^2 =  2.30729e-13
  Excitation energy:                                               9.738270 eV
  Excited state 5 (singlet, A)                                     [converged]
  Term symbol:  6 (1) A                                     R^2 =  1.35719e-13
  Excitation energy:                                              10.158488 eV
  Excited state 6 (singlet, A)                                     [converged]
  Term symbol:  7 (1) A                                     R^2 =  7.38608e-13
  Excitation energy:                                              10.520899 eV
  Excited state 7 (singlet, A)                                     [converged]
  Term symbol:  8 (1) A                                     R^2 =  1.31017e-11
  Excitation energy:                                              11.433731 eV
  Excited state 8 (singlet, A)                                     [converged]
  Term symbol:  9 (1) A                                     R^2 =  9.63689e-10
  Excitation energy:                                              12.068246 eV
  Excited state 9 (singlet, A)                                     [converged]
  Term symbol:  10 (1) A                                    R^2 =  1.93224e-08
  Excitation energy:                                              12.346786 eV
  Excited state 10 (singlet, A)                                     [converged]
  Term symbol:  11 (1) A                                    R^2 =  7.76490e-07
  Excitation energy:                                              12.476706 eV
  Excitation energy:                                               0.220518 eV
  Excitation energy:                                               0.409817 eV
  Excitation energy:                                               0.189299 eV
  Excitation energy:                                               1.006482 eV
  Excitation energy:                                               0.785963 eV
  Excitation energy:                                               0.596664 eV
  Excitation energy:                                               1.426700 eV
  Excitation energy:                                               1.206182 eV
  Excitation energy:                                               1.016883 eV
  Excitation energy:                                               0.420218 eV
  Excitation energy:                                               1.789111 eV
  Excitation energy:                                               1.568592 eV
  Excitation energy:                                               1.379293 eV
  Excitation energy:                                               0.782629 eV
  Excitation energy:                                               0.362411 eV
  Excitation energy:                                               2.701943 eV
  Excitation energy:                                               2.481425 eV
  Excitation energy:                                               2.292126 eV
  Excitation energy:                                               1.695461 eV
  Excitation energy:                                               1.275243 eV
  Excitation energy:                                               0.912832 eV
  Excitation energy:                                               3.336458 eV
  Excitation energy:                                               3.115940 eV
  Excitation energy:                                               2.926641 eV
  Excitation energy:                                               2.329976 eV
  Excitation energy:                                               1.909758 eV
  Excitation energy:                                               1.547347 eV
  Excitation energy:                                               0.634515 eV
  Excitation energy:                                               3.614998 eV
  Excitation energy:                                               3.394479 eV
  Excitation energy:                                               3.205180 eV
  Excitation energy:                                               2.608516 eV
  Excitation energy:                                               2.188297 eV
  Excitation energy:                                               1.825887 eV
  Excitation energy:                                               0.913054 eV
  Excitation energy:                                               0.278539 eV
  Excitation energy:                                               3.744917 eV
  Excitation energy:                                               3.524399 eV
  Excitation energy:                                               3.335100 eV
  Excitation energy:                                               2.738436 eV
  Excitation energy:                                               2.318217 eV
  Excitation energy:                                               1.955807 eV
  Excitation energy:                                               1.042974 eV
  Excitation energy:                                               0.408459 eV
  Excitation energy:                                               0.129920 eV

                    Orbital Energies (a.u.)
 --------------------------------------------------------------

 Alpha MOs
 -- Occupied --
-11.2388 -11.2372  -1.0299  -0.7859  -0.6350  -0.5823  -0.4995  -0.3744

          Ground-State Mulliken Net Atomic Charges

     Atom                 Charge (a.u.)
  ----------------------------------------
      1 H                     0.052194
      2 C                    -0.104141
      3 H                     0.052441
      4 C                    -0.105351
      5 H                     0.052202
      6 H                     0.052656
  ----------------------------------------
  Sum of atomic charges =     0.000000

                    Cartesian Multipole Moments
 -----------------------------------------------------------------
    Charge (ESU x 10^10)
                -0.0000
    Dipole Moment (Debye)
         X       0.0008      Y       0.0010      Z       0.0009
       Tot       0.0016
    Quadrupole Moments (Debye-Ang)
        XX     -12.2571     XY      -0.1071     YY     -12.2504
        XZ       0.1536     YZ       0.1983     ZZ     -15.6099

 Total job time:  151.56s(wall), 462.08s(cpu)
        *  Thank you very much for using Q-Chem.  Have a nice day.  *
