 Q-Chem 5.4 (devel), Q-Chem, Inc., Pleasanton, CA (2021)
 Q-Chem 5.4.1 for Intel X86 EM64T Linux

User input:
--------------------------------------------------------------
$comment
generated from CCJob.Templates
$end

$rem
sym_ignore = true
method = adc(2)
ee_states = 10
basis = cc-pVDZ
mem_static = 1024
mem_total = 40000
adc_davidson_maxiter = 900
adc_davidson_conv = 6
adc_print = 3
adc_prop_es = true
adc_prop_es2es = true
adc_prop_tpa = true
molden_format = True
state_analysis = true
print_orbitals = 15
gen_scfman = false
fde_export_density = true
fde_details = 3
$end

$molecule
0 1
H 0.01550915644723393 -0.23655938251325728 0.0675419460851492
C -1.0886302702848212 -0.5141972919769005 -0.002266780368711591
H -1.3097486234784783 -1.6306578844292685 -0.08037417937071768
C -2.0340456373167655 0.383626555078591 0.006513319868581548
H -1.8129684851237584 1.5000688935211537 0.08459852486993741
H -3.1381669271395354 0.10600159201552004 -0.06321262878390078
$end
--------------------------------------------------------------

             Standard Nuclear Orientation (Angstroms)
    I     Atom           X                Y                Z
 ----------------------------------------------------------------
    1      H       0.0155091564    -0.2365593825     0.0675419461
    2      C      -1.0886302703    -0.5141972920    -0.0022667804
    3      H      -1.3097486235    -1.6306578844    -0.0803741794
    4      C      -2.0340456373     0.3836265551     0.0065133199
    5      H      -1.8129684851     1.5000688935     0.0845985249
    6      H      -3.1381669271     0.1060015920    -0.0632126288
 ----------------------------------------------------------------

   11     -78.0316434718      1.21E-09 Convergence criterion met
 Total energy in the final basis set = -78.03164347
  Excited state 1 (singlet, A)                                     [converged]
  Term symbol:  2 (1) A                                     R^2 =  8.16881e-13
  Excitation energy:                                               8.755718 eV
  Excited state 2 (singlet, A)                                     [converged]
  Term symbol:  3 (1) A                                     R^2 =  3.84478e-13
  Excitation energy:                                               9.005312 eV
  Excited state 3 (singlet, A)                                     [converged]
  Term symbol:  4 (1) A                                     R^2 =  4.99696e-13
  Excitation energy:                                               9.114388 eV
  Excited state 4 (singlet, A)                                     [converged]
  Term symbol:  5 (1) A                                     R^2 =  4.19996e-13
  Excitation energy:                                               9.468525 eV
  Excited state 5 (singlet, A)                                     [converged]
  Term symbol:  6 (1) A                                     R^2 =  3.81195e-13
  Excitation energy:                                              10.074842 eV
  Excited state 6 (singlet, A)                                     [converged]
  Term symbol:  7 (1) A                                     R^2 =  1.10028e-12
  Excitation energy:                                              10.744383 eV
  Excited state 7 (singlet, A)                                     [converged]
  Term symbol:  8 (1) A                                     R^2 =  8.20458e-12
  Excitation energy:                                              10.920222 eV
  Excited state 8 (singlet, A)                                     [converged]
  Term symbol:  9 (1) A                                     R^2 =  4.72697e-10
  Excitation energy:                                              11.775001 eV
  Excited state 9 (singlet, A)                                     [converged]
  Term symbol:  10 (1) A                                    R^2 =  7.82168e-07
  Excitation energy:                                              12.049884 eV
  Excited state 10 (singlet, A)                                     [converged]
  Term symbol:  11 (1) A                                    R^2 =  4.20359e-09
  Excitation energy:                                              12.080088 eV
  Excitation energy:                                               0.249595 eV
  Excitation energy:                                               0.358670 eV
  Excitation energy:                                               0.109075 eV
  Excitation energy:                                               0.712807 eV
  Excitation energy:                                               0.463212 eV
  Excitation energy:                                               0.354137 eV
  Excitation energy:                                               1.319124 eV
  Excitation energy:                                               1.069529 eV
  Excitation energy:                                               0.960454 eV
  Excitation energy:                                               0.606317 eV
  Excitation energy:                                               1.988665 eV
  Excitation energy:                                               1.739071 eV
  Excitation energy:                                               1.629995 eV
  Excitation energy:                                               1.275859 eV
  Excitation energy:                                               0.669541 eV
  Excitation energy:                                               2.164504 eV
  Excitation energy:                                               1.914909 eV
  Excitation energy:                                               1.805834 eV
  Excitation energy:                                               1.451697 eV
  Excitation energy:                                               0.845380 eV
  Excitation energy:                                               0.175839 eV
  Excitation energy:                                               3.019283 eV
  Excitation energy:                                               2.769688 eV
  Excitation energy:                                               2.660613 eV
  Excitation energy:                                               2.306476 eV
  Excitation energy:                                               1.700159 eV
  Excitation energy:                                               1.030617 eV
  Excitation energy:                                               0.854779 eV
  Excitation energy:                                               3.294166 eV
  Excitation energy:                                               3.044571 eV
  Excitation energy:                                               2.935496 eV
  Excitation energy:                                               2.581359 eV
  Excitation energy:                                               1.975042 eV
  Excitation energy:                                               1.305501 eV
  Excitation energy:                                               1.129662 eV
  Excitation energy:                                               0.274883 eV
  Excitation energy:                                               3.324371 eV
  Excitation energy:                                               3.074776 eV
  Excitation energy:                                               2.965700 eV
  Excitation energy:                                               2.611564 eV
  Excitation energy:                                               2.005246 eV
  Excitation energy:                                               1.335705 eV
  Excitation energy:                                               1.159866 eV
  Excitation energy:                                               0.305088 eV
  Excitation energy:                                               0.030204 eV

                    Orbital Energies (a.u.)
 --------------------------------------------------------------

 Alpha MOs
 -- Occupied --
-11.2453 -11.2433  -1.0339  -0.7659  -0.6224  -0.5827  -0.4799  -0.3837

          Ground-State Mulliken Net Atomic Charges

     Atom                 Charge (a.u.)
  ----------------------------------------
      1 H                     0.063333
      2 C                    -0.126691
      3 H                     0.063352
      4 C                    -0.126663
      5 H                     0.063344
      6 H                     0.063325
  ----------------------------------------
  Sum of atomic charges =     0.000000

                    Cartesian Multipole Moments
 -----------------------------------------------------------------
    Charge (ESU x 10^10)
                -0.0000
    Dipole Moment (Debye)
         X      -0.0000      Y       0.0000      Z       0.0000
       Tot       0.0001
    Quadrupole Moments (Debye-Ang)
        XX     -12.3300     XY      -0.0735     YY     -12.3415
        XZ       0.1592     YZ       0.2018     ZZ     -15.7205

 Total job time:  136.43s(wall), 423.55s(cpu)
        *  Thank you very much for using Q-Chem.  Have a nice day.  *
