 Q-Chem 5.4 (devel), Q-Chem, Inc., Pleasanton, CA (2021)
 Q-Chem 5.4.1 for Intel X86 EM64T Linux

User input:
--------------------------------------------------------------
$comment
generated from CCJob.Templates
$end

$rem
sym_ignore = true
method = adc(2)
ee_states = 10
basis = cc-pVDZ
mem_static = 1024
mem_total = 30000
adc_davidson_maxiter = 900
adc_davidson_conv = 6
adc_print = 3
adc_prop_es = true
adc_prop_es2es = true
adc_prop_tpa = true
molden_format = True
state_analysis = true
print_orbitals = 15
gen_scfman = false
fde_export_density = true
fde_details = 3
$end

$molecule
0 1
H -0.0348278765 -0.2492097827 0.0636489606
C -1.0765972949 -0.5242748755 -0.0023551776
H -1.313264467 -1.5767591607 -0.0757276926
C -2.043634118 0.3926884087 0.0061254933
H -1.8137616575 1.4459188338 0.0804456828
H -3.085977293 0.114931858 -0.0593381042
$end
--------------------------------------------------------------

             Standard Nuclear Orientation (Angstroms)
    I     Atom           X                Y                Z
 ----------------------------------------------------------------
    1      H      -0.0348278765    -0.2492097827     0.0636489606
    2      C      -1.0765972949    -0.5242748755    -0.0023551776
    3      H      -1.3132644670    -1.5767591607    -0.0757276926
    4      C      -2.0436341180     0.3926884087     0.0061254933
    5      H      -1.8137616575     1.4459188338     0.0804456828
    6      H      -3.0859772930     0.1149318580    -0.0593381042
 ----------------------------------------------------------------

   11     -78.0399284032      1.53E-09 Convergence criterion met
 Total energy in the final basis set = -78.03992840
  Excited state 1 (singlet, A)                                     [converged]
  Term symbol:  2 (1) A                                     R^2 =  9.10782e-14
  Excitation energy:                                               8.736747 eV
  Excited state 2 (singlet, A)                                     [converged]
  Term symbol:  3 (1) A                                     R^2 =  2.03304e-13
  Excitation energy:                                               9.051700 eV
  Excited state 3 (singlet, A)                                     [converged]
  Term symbol:  4 (1) A                                     R^2 =  2.14968e-13
  Excitation energy:                                               9.175204 eV
  Excited state 4 (singlet, A)                                     [converged]
  Term symbol:  5 (1) A                                     R^2 =  5.03507e-13
  Excitation energy:                                               9.835187 eV
  Excited state 5 (singlet, A)                                     [converged]
  Term symbol:  6 (1) A                                     R^2 =  5.06446e-13
  Excitation energy:                                              10.215613 eV
  Excited state 6 (singlet, A)                                     [converged]
  Term symbol:  7 (1) A                                     R^2 =  4.01324e-13
  Excitation energy:                                              10.539180 eV
  Excited state 7 (singlet, A)                                     [converged]
  Term symbol:  8 (1) A                                     R^2 =  9.97007e-11
  Excitation energy:                                              11.558963 eV
  Excited state 8 (singlet, A)                                     [converged]
  Term symbol:  9 (1) A                                     R^2 =  4.16809e-11
  Excitation energy:                                              12.163175 eV
  Excited state 9 (singlet, A)                                     [converged]
  Term symbol:  10 (1) A                                    R^2 =  5.25872e-10
  Excitation energy:                                              12.415348 eV
  Excited state 10 (singlet, A)                                     [converged]
  Term symbol:  11 (1) A                                    R^2 =  9.58748e-07
  Excitation energy:                                              12.646410 eV
  Excitation energy:                                               0.314953 eV
  Excitation energy:                                               0.438457 eV
  Excitation energy:                                               0.123504 eV
  Excitation energy:                                               1.098439 eV
  Excitation energy:                                               0.783487 eV
  Excitation energy:                                               0.659983 eV
  Excitation energy:                                               1.478866 eV
  Excitation energy:                                               1.163914 eV
  Excitation energy:                                               1.040410 eV
  Excitation energy:                                               0.380427 eV
  Excitation energy:                                               1.802432 eV
  Excitation energy:                                               1.487480 eV
  Excitation energy:                                               1.363976 eV
  Excitation energy:                                               0.703993 eV
  Excitation energy:                                               0.323566 eV
  Excitation energy:                                               2.822216 eV
  Excitation energy:                                               2.507263 eV
  Excitation energy:                                               2.383759 eV
  Excitation energy:                                               1.723776 eV
  Excitation energy:                                               1.343350 eV
  Excitation energy:                                               1.019783 eV
  Excitation energy:                                               3.426428 eV
  Excitation energy:                                               3.111475 eV
  Excitation energy:                                               2.987971 eV
  Excitation energy:                                               2.327988 eV
  Excitation energy:                                               1.947561 eV
  Excitation energy:                                               1.623995 eV
  Excitation energy:                                               0.604212 eV
  Excitation energy:                                               3.678601 eV
  Excitation energy:                                               3.363648 eV
  Excitation energy:                                               3.240144 eV
  Excitation energy:                                               2.580161 eV
  Excitation energy:                                               2.199734 eV
  Excitation energy:                                               1.876168 eV
  Excitation energy:                                               0.856385 eV
  Excitation energy:                                               0.252173 eV
  Excitation energy:                                               3.909663 eV
  Excitation energy:                                               3.594710 eV
  Excitation energy:                                               3.471206 eV
  Excitation energy:                                               2.811223 eV
  Excitation energy:                                               2.430797 eV
  Excitation energy:                                               2.107230 eV
  Excitation energy:                                               1.087447 eV
  Excitation energy:                                               0.483235 eV
  Excitation energy:                                               0.231062 eV

                    Orbital Energies (a.u.)
 --------------------------------------------------------------

 Alpha MOs
 -- Occupied --
-11.2351 -11.2334  -1.0323  -0.7901  -0.6410  -0.5823  -0.5045  -0.3740

          Ground-State Mulliken Net Atomic Charges

     Atom                 Charge (a.u.)
  ----------------------------------------
      1 H                     0.047762
      2 C                    -0.094711
      3 H                     0.047412
      4 C                    -0.095476
      5 H                     0.047247
      6 H                     0.047766
  ----------------------------------------
  Sum of atomic charges =     0.000000

                    Cartesian Multipole Moments
 -----------------------------------------------------------------
    Charge (ESU x 10^10)
                 0.0000
    Dipole Moment (Debye)
         X      -0.0005      Y       0.0008      Z       0.0014
       Tot       0.0017
    Quadrupole Moments (Debye-Ang)
        XX     -12.2103     XY      -0.0662     YY     -12.2713
        XZ       0.1525     YZ       0.1926     ZZ     -15.5392

 Total job time:  63.08s(wall), 205.75s(cpu)
        *  Thank you very much for using Q-Chem.  Have a nice day.  *
