 Q-Chem 5.4 (devel), Q-Chem, Inc., Pleasanton, CA (2021)
 Q-Chem 5.4.1 for Intel X86 EM64T Linux

User input:
--------------------------------------------------------------
$comment
generated from CCJob.Templates
$end

$rem
sym_ignore = true
method = adc(2)
ee_states = 10
basis = cc-pVDZ
mem_static = 1024
mem_total = 40000
adc_davidson_maxiter = 900
adc_davidson_conv = 6
adc_print = 3
adc_prop_es = true
adc_prop_es2es = true
adc_prop_tpa = true
molden_format = True
state_analysis = true
print_orbitals = 15
gen_scfman = false
fde_export_density = true
fde_details = 3
$end

$molecule
0 1
H -0.0348278765 -0.2442097827 0.0636489606
C -1.0765972949 -0.5642748755 -0.0023551776
H -1.313264467 -1.5767591607 -0.0757276926
C -2.043634118 0.3926884087 0.0061254933
H -1.8137616575 1.4459188338 0.0804456828
H -3.085977293 0.114931858 -0.0593381042
$end
--------------------------------------------------------------

             Standard Nuclear Orientation (Angstroms)
    I     Atom           X                Y                Z
 ----------------------------------------------------------------
    1      H      -0.0348278765    -0.2442097827     0.0636489606
    2      C      -1.0765972949    -0.5642748755    -0.0023551776
    3      H      -1.3132644670    -1.5767591607    -0.0757276926
    4      C      -2.0436341180     0.3926884087     0.0061254933
    5      H      -1.8137616575     1.4459188338     0.0804456828
    6      H      -3.0859772930     0.1149318580    -0.0593381042
 ----------------------------------------------------------------

   11     -78.0365837115      7.05E-09 Convergence criterion met
 Total energy in the final basis set = -78.03658371
  Excited state 1 (singlet, A)                                     [converged]
  Term symbol:  2 (1) A                                     R^2 =  1.42574e-13
  Excitation energy:                                               8.499083 eV
  Excited state 2 (singlet, A)                                     [converged]
  Term symbol:  3 (1) A                                     R^2 =  9.96991e-14
  Excitation energy:                                               9.019741 eV
  Excited state 3 (singlet, A)                                     [converged]
  Term symbol:  4 (1) A                                     R^2 =  4.13499e-13
  Excitation energy:                                               9.064738 eV
  Excited state 4 (singlet, A)                                     [converged]
  Term symbol:  5 (1) A                                     R^2 =  3.82611e-13
  Excitation energy:                                               9.821422 eV
  Excited state 5 (singlet, A)                                     [converged]
  Term symbol:  6 (1) A                                     R^2 =  4.05691e-13
  Excitation energy:                                              10.009209 eV
  Excited state 6 (singlet, A)                                     [converged]
  Term symbol:  7 (1) A                                     R^2 =  3.64459e-13
  Excitation energy:                                              10.364288 eV
  Excited state 7 (singlet, A)                                     [converged]
  Term symbol:  8 (1) A                                     R^2 =  6.58680e-13
  Excitation energy:                                              11.690543 eV
  Excited state 8 (singlet, A)                                     [converged]
  Term symbol:  9 (1) A                                     R^2 =  5.28615e-13
  Excitation energy:                                              12.021983 eV
  Excited state 9 (singlet, A)                                     [converged]
  Term symbol:  10 (1) A                                    R^2 =  4.48487e-13
  Excitation energy:                                              12.271504 eV
  Excited state 10 (singlet, A)                                     [converged]
  Term symbol:  11 (1) A                                    R^2 =  8.01610e-07
  Excitation energy:                                              12.846306 eV
  Excitation energy:                                               0.520658 eV
  Excitation energy:                                               0.565654 eV
  Excitation energy:                                               0.044996 eV
  Excitation energy:                                               1.322339 eV
  Excitation energy:                                               0.801681 eV
  Excitation energy:                                               0.756685 eV
  Excitation energy:                                               1.510125 eV
  Excitation energy:                                               0.989468 eV
  Excitation energy:                                               0.944471 eV
  Excitation energy:                                               0.187786 eV
  Excitation energy:                                               1.865205 eV
  Excitation energy:                                               1.344547 eV
  Excitation energy:                                               1.299551 eV
  Excitation energy:                                               0.542866 eV
  Excitation energy:                                               0.355079 eV
  Excitation energy:                                               3.191459 eV
  Excitation energy:                                               2.670802 eV
  Excitation energy:                                               2.625805 eV
  Excitation energy:                                               1.869121 eV
  Excitation energy:                                               1.681334 eV
  Excitation energy:                                               1.326255 eV
  Excitation energy:                                               3.522900 eV
  Excitation energy:                                               3.002242 eV
  Excitation energy:                                               2.957246 eV
  Excitation energy:                                               2.200561 eV
  Excitation energy:                                               2.012775 eV
  Excitation energy:                                               1.657695 eV
  Excitation energy:                                               0.331441 eV
  Excitation energy:                                               3.772421 eV
  Excitation energy:                                               3.251763 eV
  Excitation energy:                                               3.206766 eV
  Excitation energy:                                               2.450082 eV
  Excitation energy:                                               2.262295 eV
  Excitation energy:                                               1.907216 eV
  Excitation energy:                                               0.580961 eV
  Excitation energy:                                               0.249521 eV
  Excitation energy:                                               4.347223 eV
  Excitation energy:                                               3.826565 eV
  Excitation energy:                                               3.781569 eV
  Excitation energy:                                               3.024884 eV
  Excitation energy:                                               2.837098 eV
  Excitation energy:                                               2.482018 eV
  Excitation energy:                                               1.155763 eV
  Excitation energy:                                               0.824323 eV
  Excitation energy:                                               0.574802 eV

                    Orbital Energies (a.u.)
 --------------------------------------------------------------

 Alpha MOs
 -- Occupied --
-11.2385 -11.2357  -1.0256  -0.7948  -0.6428  -0.5762  -0.5115  -0.3673

          Ground-State Mulliken Net Atomic Charges

     Atom                 Charge (a.u.)
  ----------------------------------------
      1 H                     0.051799
      2 C                    -0.083152
      3 H                     0.040379
      4 C                    -0.107576
      5 H                     0.050335
      6 H                     0.048214
  ----------------------------------------
  Sum of atomic charges =     0.000000

                    Cartesian Multipole Moments
 -----------------------------------------------------------------
    Charge (ESU x 10^10)
                 0.0000
    Dipole Moment (Debye)
         X      -0.0155      Y      -0.0025      Z      -0.0031
       Tot       0.0160
    Quadrupole Moments (Debye-Ang)
        XX     -12.2739     XY      -0.0292     YY     -12.1245
        XZ       0.1578     YZ       0.2088     ZZ     -15.6149

 Total job time:  73.10s(wall), 254.45s(cpu)
        *  Thank you very much for using Q-Chem.  Have a nice day.  *
