 Q-Chem 5.4 (devel), Q-Chem, Inc., Pleasanton, CA (2021)
 Q-Chem 5.4.1 for Intel X86 EM64T Linux

User input:
--------------------------------------------------------------
$comment
generated from CCJob.Templates
$end

$rem
sym_ignore = true
method = adc(2)
ee_states = 10
basis = cc-pVDZ
mem_static = 1024
mem_total = 40000
adc_davidson_maxiter = 900
adc_davidson_conv = 6
adc_print = 3
adc_prop_es = true
adc_prop_es2es = true
adc_prop_tpa = true
molden_format = True
state_analysis = true
print_orbitals = 15
gen_scfman = false
fde_export_density = true
fde_details = 3
$end

$molecule
0 1
H -0.021461363600309386 -0.2470523698997263 0.06416981330346036
C -1.0776308748010137 -0.524611071299305 -0.005716760387874553
H -1.3011046007003533 -1.5930485361999758 -0.07941240249379412
C -2.0445624008007135 0.39353455840111473 0.006178567901559698
H -1.8214671799001472 1.4623394493005002 0.08254221999776007
H -3.1010816191001913 0.11634249540025099 -0.06094127199949439
$end
--------------------------------------------------------------

             Standard Nuclear Orientation (Angstroms)
    I     Atom           X                Y                Z
 ----------------------------------------------------------------
    1      H      -0.0214613636    -0.2470523699     0.0641698133
    2      C      -1.0776308748    -0.5246110713    -0.0057167604
    3      H      -1.3011046007    -1.5930485362    -0.0794124025
    4      C      -2.0445624008     0.3935345584     0.0061785679
    5      H      -1.8214671799     1.4623394493     0.0825422200
    6      H      -3.1010816191     0.1163424954    -0.0609412720
 ----------------------------------------------------------------

   10     -78.0396506573      9.32E-09 Convergence criterion met
 Total energy in the final basis set = -78.03965066
  Excited state 1 (singlet, A)                                     [converged]
  Term symbol:  2 (1) A                                     R^2 =  6.91191e-13
  Excitation energy:                                               8.731760 eV
  Excited state 2 (singlet, A)                                     [converged]
  Term symbol:  3 (1) A                                     R^2 =  9.21797e-13
  Excitation energy:                                               8.952417 eV
  Excited state 3 (singlet, A)                                     [converged]
  Term symbol:  4 (1) A                                     R^2 =  4.99977e-13
  Excitation energy:                                               9.141660 eV
  Excited state 4 (singlet, A)                                     [converged]
  Term symbol:  5 (1) A                                     R^2 =  8.06789e-13
  Excitation energy:                                               9.738241 eV
  Excited state 5 (singlet, A)                                     [converged]
  Term symbol:  6 (1) A                                     R^2 =  7.79349e-13
  Excitation energy:                                              10.158439 eV
  Excited state 6 (singlet, A)                                     [converged]
  Term symbol:  7 (1) A                                     R^2 =  4.75520e-12
  Excitation energy:                                              10.520804 eV
  Excited state 7 (singlet, A)                                     [converged]
  Term symbol:  8 (1) A                                     R^2 =  8.22161e-09
  Excitation energy:                                              11.433848 eV
  Excited state 8 (singlet, A)                                     [converged]
  Term symbol:  9 (1) A                                     R^2 =  1.87353e-07
  Excitation energy:                                              12.068231 eV
  Excited state 9 (singlet, A)                                     [converged]
  Term symbol:  10 (1) A                                    R^2 =  9.22640e-07
  Excitation energy:                                              12.346799 eV
  Excited state 10 (singlet, A)                                     [converged]
  Term symbol:  11 (1) A                                    R^2 =  2.70224e-07
  Excitation energy:                                              12.476796 eV
  Excitation energy:                                               0.220657 eV
  Excitation energy:                                               0.409900 eV
  Excitation energy:                                               0.189243 eV
  Excitation energy:                                               1.006481 eV
  Excitation energy:                                               0.785824 eV
  Excitation energy:                                               0.596581 eV
  Excitation energy:                                               1.426679 eV
  Excitation energy:                                               1.206022 eV
  Excitation energy:                                               1.016780 eV
  Excitation energy:                                               0.420198 eV
  Excitation energy:                                               1.789044 eV
  Excitation energy:                                               1.568387 eV
  Excitation energy:                                               1.379144 eV
  Excitation energy:                                               0.782563 eV
  Excitation energy:                                               0.362365 eV
  Excitation energy:                                               2.702088 eV
  Excitation energy:                                               2.481431 eV
  Excitation energy:                                               2.292189 eV
  Excitation energy:                                               1.695607 eV
  Excitation energy:                                               1.275409 eV
  Excitation energy:                                               0.913044 eV
  Excitation energy:                                               3.336471 eV
  Excitation energy:                                               3.115814 eV
  Excitation energy:                                               2.926571 eV
  Excitation energy:                                               2.329990 eV
  Excitation energy:                                               1.909792 eV
  Excitation energy:                                               1.547427 eV
  Excitation energy:                                               0.634383 eV
  Excitation energy:                                               3.615039 eV
  Excitation energy:                                               3.394382 eV
  Excitation energy:                                               3.205140 eV
  Excitation energy:                                               2.608558 eV
  Excitation energy:                                               2.188360 eV
  Excitation energy:                                               1.825995 eV
  Excitation energy:                                               0.912951 eV
  Excitation energy:                                               0.278568 eV
  Excitation energy:                                               3.745036 eV
  Excitation energy:                                               3.524379 eV
  Excitation energy:                                               3.335136 eV
  Excitation energy:                                               2.738555 eV
  Excitation energy:                                               2.318357 eV
  Excitation energy:                                               1.955992 eV
  Excitation energy:                                               1.042948 eV
  Excitation energy:                                               0.408565 eV
  Excitation energy:                                               0.129997 eV

                    Orbital Energies (a.u.)
 --------------------------------------------------------------

 Alpha MOs
 -- Occupied --
-11.2388 -11.2372  -1.0299  -0.7859  -0.6350  -0.5823  -0.4995  -0.3744

          Ground-State Mulliken Net Atomic Charges

     Atom                 Charge (a.u.)
  ----------------------------------------
      1 H                     0.052373
      2 C                    -0.104542
      3 H                     0.052340
      4 C                    -0.104960
      5 H                     0.052417
      6 H                     0.052372
  ----------------------------------------
  Sum of atomic charges =     0.000000

                    Cartesian Multipole Moments
 -----------------------------------------------------------------
    Charge (ESU x 10^10)
                -0.0000
    Dipole Moment (Debye)
         X      -0.0003      Y      -0.0003      Z       0.0037
       Tot       0.0038
    Quadrupole Moments (Debye-Ang)
        XX     -12.2448     XY      -0.1048     YY     -12.2593
        XZ       0.1509     YZ       0.1996     ZZ     -15.6095

 Total job time:  138.97s(wall), 406.85s(cpu)
        *  Thank you very much for using Q-Chem.  Have a nice day.  *
