 Q-Chem 5.4 (devel), Q-Chem, Inc., Pleasanton, CA (2021)
 Q-Chem 5.4.1 for Intel X86 EM64T Linux

User input:
--------------------------------------------------------------
$comment
generated from CCJob.Templates
$end

$rem
sym_ignore = true
method = adc(2)
ee_states = 10
basis = cc-pVDZ
mem_static = 1024
mem_total = 40000
adc_davidson_maxiter = 900
adc_davidson_conv = 6
adc_print = 3
adc_prop_es = true
adc_prop_es2es = true
adc_prop_tpa = true
molden_format = True
state_analysis = true
print_orbitals = 15
gen_scfman = false
fde_export_density = true
fde_details = 3
$end

$molecule
0 1
H -0.0348278765 -0.2442097827 0.0636489606
C -1.0765972949 -0.5242748755 -0.0023551776
H -1.313264467 -1.5767591607 -0.0757276926
C -2.043634118 0.3926884087 0.0061254933
H -1.8037616575 1.4459188338 0.0804456828
H -3.085977293 0.114931858 -0.0593381042
$end
--------------------------------------------------------------

             Standard Nuclear Orientation (Angstroms)
    I     Atom           X                Y                Z
 ----------------------------------------------------------------
    1      H      -0.0348278765    -0.2442097827     0.0636489606
    2      C      -1.0765972949    -0.5242748755    -0.0023551776
    3      H      -1.3132644670    -1.5767591607    -0.0757276926
    4      C      -2.0436341180     0.3926884087     0.0061254933
    5      H      -1.8037616575     1.4459188338     0.0804456828
    6      H      -3.0859772930     0.1149318580    -0.0593381042
 ----------------------------------------------------------------

   11     -78.0399043825      3.30E-09 Convergence criterion met
 Total energy in the final basis set = -78.03990438
  Excited state 1 (singlet, A)                                     [converged]
  Term symbol:  2 (1) A                                     R^2 =  1.27874e-13
  Excitation energy:                                               8.737897 eV
  Excited state 2 (singlet, A)                                     [converged]
  Term symbol:  3 (1) A                                     R^2 =  2.36477e-13
  Excitation energy:                                               9.059340 eV
  Excited state 3 (singlet, A)                                     [converged]
  Term symbol:  4 (1) A                                     R^2 =  1.89510e-13
  Excitation energy:                                               9.162105 eV
  Excited state 4 (singlet, A)                                     [converged]
  Term symbol:  5 (1) A                                     R^2 =  4.38155e-13
  Excitation energy:                                               9.830320 eV
  Excited state 5 (singlet, A)                                     [converged]
  Term symbol:  6 (1) A                                     R^2 =  3.72750e-13
  Excitation energy:                                              10.205916 eV
  Excited state 6 (singlet, A)                                     [converged]
  Term symbol:  7 (1) A                                     R^2 =  5.71953e-13
  Excitation energy:                                              10.530174 eV
  Excited state 7 (singlet, A)                                     [converged]
  Term symbol:  8 (1) A                                     R^2 =  4.07243e-11
  Excitation energy:                                              11.552755 eV
  Excited state 8 (singlet, A)                                     [converged]
  Term symbol:  9 (1) A                                     R^2 =  2.16900e-11
  Excitation energy:                                              12.170002 eV
  Excited state 9 (singlet, A)                                     [converged]
  Term symbol:  10 (1) A                                    R^2 =  2.91051e-10
  Excitation energy:                                              12.421255 eV
  Excited state 10 (singlet, A)                                     [converged]
  Term symbol:  11 (1) A                                    R^2 =  5.42469e-07
  Excitation energy:                                              12.644811 eV
  Excitation energy:                                               0.321443 eV
  Excitation energy:                                               0.424209 eV
  Excitation energy:                                               0.102766 eV
  Excitation energy:                                               1.092423 eV
  Excitation energy:                                               0.770980 eV
  Excitation energy:                                               0.668215 eV
  Excitation energy:                                               1.468019 eV
  Excitation energy:                                               1.146576 eV
  Excitation energy:                                               1.043810 eV
  Excitation energy:                                               0.375596 eV
  Excitation energy:                                               1.792278 eV
  Excitation energy:                                               1.470835 eV
  Excitation energy:                                               1.368069 eV
  Excitation energy:                                               0.699854 eV
  Excitation energy:                                               0.324259 eV
  Excitation energy:                                               2.814858 eV
  Excitation energy:                                               2.493415 eV
  Excitation energy:                                               2.390650 eV
  Excitation energy:                                               1.722435 eV
  Excitation energy:                                               1.346839 eV
  Excitation energy:                                               1.022581 eV
  Excitation energy:                                               3.432105 eV
  Excitation energy:                                               3.110662 eV
  Excitation energy:                                               3.007896 eV
  Excitation energy:                                               2.339682 eV
  Excitation energy:                                               1.964086 eV
  Excitation energy:                                               1.639827 eV
  Excitation energy:                                               0.617247 eV
  Excitation energy:                                               3.683359 eV
  Excitation energy:                                               3.361916 eV
  Excitation energy:                                               3.259150 eV
  Excitation energy:                                               2.590935 eV
  Excitation energy:                                               2.215340 eV
  Excitation energy:                                               1.891081 eV
  Excitation energy:                                               0.868500 eV
  Excitation energy:                                               0.251253 eV
  Excitation energy:                                               3.906915 eV
  Excitation energy:                                               3.585472 eV
  Excitation energy:                                               3.482706 eV
  Excitation energy:                                               2.814491 eV
  Excitation energy:                                               2.438896 eV
  Excitation energy:                                               2.114637 eV
  Excitation energy:                                               1.092056 eV
  Excitation energy:                                               0.474810 eV
  Excitation energy:                                               0.223556 eV

                    Orbital Energies (a.u.)
 --------------------------------------------------------------

 Alpha MOs
 -- Occupied --
-11.2351 -11.2335  -1.0323  -0.7892  -0.6415  -0.5812  -0.5047  -0.3740

          Ground-State Mulliken Net Atomic Charges

     Atom                 Charge (a.u.)
  ----------------------------------------
      1 H                     0.048009
      2 C                    -0.095244
      3 H                     0.047446
      4 C                    -0.096135
      5 H                     0.047782
      6 H                     0.048143
  ----------------------------------------
  Sum of atomic charges =     0.000000

                    Cartesian Multipole Moments
 -----------------------------------------------------------------
    Charge (ESU x 10^10)
                -0.0000
    Dipole Moment (Debye)
         X       0.0001      Y      -0.0008      Z       0.0008
       Tot       0.0011
    Quadrupole Moments (Debye-Ang)
        XX     -12.2140     XY      -0.0361     YY     -12.2808
        XZ       0.1548     YZ       0.1931     ZZ     -15.5443

 Total job time:  115.25s(wall), 355.73s(cpu)
        *  Thank you very much for using Q-Chem.  Have a nice day.  *
