 Q-Chem 5.4 (devel), Q-Chem, Inc., Pleasanton, CA (2021)
 Q-Chem 5.4.1 for Intel X86 EM64T Linux

User input:
--------------------------------------------------------------
$comment
generated from CCJob.Templates
$end

$rem
sym_ignore = true
method = adc(2)
ee_states = 10
basis = cc-pVDZ
mem_static = 1024
mem_total = 40000
adc_davidson_maxiter = 900
adc_davidson_conv = 6
adc_print = 3
adc_prop_es = true
adc_prop_es2es = true
adc_prop_tpa = true
molden_format = True
state_analysis = true
print_orbitals = 15
gen_scfman = false
fde_export_density = true
fde_details = 3
$end

$molecule
0 1
H -0.0348278765 -0.2442097827 0.0636489606
C -1.0765972949 -0.5242748755 -0.0023551776
H -1.313264467 -1.5767591607 -0.0757276926
C -2.043634118 0.3926884087 0.0061254933
H -1.8137616575 1.4459188338 0.0904456828
H -3.085977293 0.114931858 -0.0593381042
$end
--------------------------------------------------------------

             Standard Nuclear Orientation (Angstroms)
    I     Atom           X                Y                Z
 ----------------------------------------------------------------
    1      H      -0.0348278765    -0.2442097827     0.0636489606
    2      C      -1.0765972949    -0.5242748755    -0.0023551776
    3      H      -1.3132644670    -1.5767591607    -0.0757276926
    4      C      -2.0436341180     0.3926884087     0.0061254933
    5      H      -1.8137616575     1.4459188338     0.0904456828
    6      H      -3.0859772930     0.1149318580    -0.0593381042
 ----------------------------------------------------------------

   10     -78.0399233448      9.60E-09 Convergence criterion met
 Total energy in the final basis set = -78.03992334
  Excited state 1 (singlet, A)                                     [converged]
  Term symbol:  2 (1) A                                     R^2 =  2.12574e-13
  Excitation energy:                                               8.736417 eV
  Excited state 2 (singlet, A)                                     [converged]
  Term symbol:  3 (1) A                                     R^2 =  9.74371e-14
  Excitation energy:                                               9.054075 eV
  Excited state 3 (singlet, A)                                     [converged]
  Term symbol:  4 (1) A                                     R^2 =  7.74044e-14
  Excitation energy:                                               9.169803 eV
  Excited state 4 (singlet, A)                                     [converged]
  Term symbol:  5 (1) A                                     R^2 =  1.13089e-13
  Excitation energy:                                               9.832222 eV
  Excited state 5 (singlet, A)                                     [converged]
  Term symbol:  6 (1) A                                     R^2 =  9.67908e-14
  Excitation energy:                                              10.211188 eV
  Excited state 6 (singlet, A)                                     [converged]
  Term symbol:  7 (1) A                                     R^2 =  6.11981e-13
  Excitation energy:                                              10.535071 eV
  Excited state 7 (singlet, A)                                     [converged]
  Term symbol:  8 (1) A                                     R^2 =  6.74951e-12
  Excitation energy:                                              11.555303 eV
  Excited state 8 (singlet, A)                                     [converged]
  Term symbol:  9 (1) A                                     R^2 =  1.14280e-10
  Excitation energy:                                              12.164728 eV
  Excited state 9 (singlet, A)                                     [converged]
  Term symbol:  10 (1) A                                    R^2 =  2.86889e-09
  Excitation energy:                                              12.416523 eV
  Excited state 10 (singlet, A)                                     [converged]
  Term symbol:  11 (1) A                                    R^2 =  7.21596e-07
  Excitation energy:                                              12.643934 eV
  Excitation energy:                                               0.317659 eV
  Excitation energy:                                               0.433386 eV
  Excitation energy:                                               0.115728 eV
  Excitation energy:                                               1.095805 eV
  Excitation energy:                                               0.778146 eV
  Excitation energy:                                               0.662419 eV
  Excitation energy:                                               1.474771 eV
  Excitation energy:                                               1.157113 eV
  Excitation energy:                                               1.041385 eV
  Excitation energy:                                               0.378966 eV
  Excitation energy:                                               1.798654 eV
  Excitation energy:                                               1.480996 eV
  Excitation energy:                                               1.365268 eV
  Excitation energy:                                               0.702849 eV
  Excitation energy:                                               0.323883 eV
  Excitation energy:                                               2.818886 eV
  Excitation energy:                                               2.501227 eV
  Excitation energy:                                               2.385500 eV
  Excitation energy:                                               1.723081 eV
  Excitation energy:                                               1.344115 eV
  Excitation energy:                                               1.020232 eV
  Excitation energy:                                               3.428311 eV
  Excitation energy:                                               3.110653 eV
  Excitation energy:                                               2.994925 eV
  Excitation energy:                                               2.332506 eV
  Excitation energy:                                               1.953540 eV
  Excitation energy:                                               1.629657 eV
  Excitation energy:                                               0.609425 eV
  Excitation energy:                                               3.680106 eV
  Excitation energy:                                               3.362448 eV
  Excitation energy:                                               3.246720 eV
  Excitation energy:                                               2.584301 eV
  Excitation energy:                                               2.205335 eV
  Excitation energy:                                               1.881452 eV
  Excitation energy:                                               0.861220 eV
  Excitation energy:                                               0.251795 eV
  Excitation energy:                                               3.907517 eV
  Excitation energy:                                               3.589859 eV
  Excitation energy:                                               3.474131 eV
  Excitation energy:                                               2.811712 eV
  Excitation energy:                                               2.432746 eV
  Excitation energy:                                               2.108863 eV
  Excitation energy:                                               1.088631 eV
  Excitation energy:                                               0.479206 eV
  Excitation energy:                                               0.227411 eV

                    Orbital Energies (a.u.)
 --------------------------------------------------------------

 Alpha MOs
 -- Occupied --
-11.2351 -11.2335  -1.0323  -0.7897  -0.6411  -0.5819  -0.5046  -0.3740

          Ground-State Mulliken Net Atomic Charges

     Atom                 Charge (a.u.)
  ----------------------------------------
      1 H                     0.048127
      2 C                    -0.095028
      3 H                     0.047662
      4 C                    -0.095871
      5 H                     0.047402
      6 H                     0.047708
  ----------------------------------------
  Sum of atomic charges =     0.000000

                    Cartesian Multipole Moments
 -----------------------------------------------------------------
    Charge (ESU x 10^10)
                -0.0000
    Dipole Moment (Debye)
         X      -0.0020      Y       0.0008      Z       0.0081
       Tot       0.0084
    Quadrupole Moments (Debye-Ang)
        XX     -12.2126     XY      -0.0569     YY     -12.2704
        XZ       0.1414     YZ       0.2055     ZZ     -15.5404

 Total job time:  77.87s(wall), 198.97s(cpu)
        *  Thank you very much for using Q-Chem.  Have a nice day.  *
