 Q-Chem 5.4 (devel), Q-Chem, Inc., Pleasanton, CA (2021)
 Q-Chem 5.4.1 for Intel X86 EM64T Linux

User input:
--------------------------------------------------------------
$comment
generated from CCJob.Templates
$end

$rem
sym_ignore = true
method = adc(2)
ee_states = 10
basis = cc-pVDZ
mem_static = 1024
mem_total = 30000
adc_davidson_maxiter = 900
adc_davidson_conv = 6
adc_print = 3
adc_prop_es = true
adc_prop_es2es = true
adc_prop_tpa = true
molden_format = True
state_analysis = true
print_orbitals = 15
gen_scfman = false
fde_export_density = true
fde_details = 3
$end

$molecule
0 1
H -0.0348278765 -0.2442097827 0.0636489606
C -1.0765972949 -0.5242748755 -0.0023551776
H -1.313264467 -1.5767591607 -0.0757276926
C -2.043634118 0.3926884087 0.0061254933
H -1.8137616575 1.4459188338 0.0804456828
H -3.085977293 0.119931858 -0.0593381042
$end
--------------------------------------------------------------

             Standard Nuclear Orientation (Angstroms)
    I     Atom           X                Y                Z
 ----------------------------------------------------------------
    1      H      -0.0348278765    -0.2442097827     0.0636489606
    2      C      -1.0765972949    -0.5242748755    -0.0023551776
    3      H      -1.3132644670    -1.5767591607    -0.0757276926
    4      C      -2.0436341180     0.3926884087     0.0061254933
    5      H      -1.8137616575     1.4459188338     0.0804456828
    6      H      -3.0859772930     0.1199318580    -0.0593381042
 ----------------------------------------------------------------

   11     -78.0399224220      4.73E-09 Convergence criterion met
 Total energy in the final basis set = -78.03992242
  Excited state 1 (singlet, A)                                     [converged]
  Term symbol:  2 (1) A                                     R^2 =  7.21530e-13
  Excitation energy:                                               8.736738 eV
  Excited state 2 (singlet, A)                                     [converged]
  Term symbol:  3 (1) A                                     R^2 =  4.46787e-13
  Excitation energy:                                               9.051632 eV
  Excited state 3 (singlet, A)                                     [converged]
  Term symbol:  4 (1) A                                     R^2 =  5.45515e-13
  Excitation energy:                                               9.175148 eV
  Excited state 4 (singlet, A)                                     [converged]
  Term symbol:  5 (1) A                                     R^2 =  5.47617e-13
  Excitation energy:                                               9.835116 eV
  Excited state 5 (singlet, A)                                     [converged]
  Term symbol:  6 (1) A                                     R^2 =  4.38931e-13
  Excitation energy:                                              10.215568 eV
  Excited state 6 (singlet, A)                                     [converged]
  Term symbol:  7 (1) A                                     R^2 =  3.03047e-13
  Excitation energy:                                              10.539137 eV
  Excited state 7 (singlet, A)                                     [converged]
  Term symbol:  8 (1) A                                     R^2 =  4.88069e-11
  Excitation energy:                                              11.558848 eV
  Excited state 8 (singlet, A)                                     [converged]
  Term symbol:  9 (1) A                                     R^2 =  5.76869e-11
  Excitation energy:                                              12.163151 eV
  Excited state 9 (singlet, A)                                     [converged]
  Term symbol:  10 (1) A                                    R^2 =  4.77710e-10
  Excitation energy:                                              12.415325 eV
  Excited state 10 (singlet, A)                                     [converged]
  Term symbol:  11 (1) A                                    R^2 =  6.93836e-07
  Excitation energy:                                              12.646269 eV
  Excitation energy:                                               0.314894 eV
  Excitation energy:                                               0.438410 eV
  Excitation energy:                                               0.123516 eV
  Excitation energy:                                               1.098378 eV
  Excitation energy:                                               0.783484 eV
  Excitation energy:                                               0.659967 eV
  Excitation energy:                                               1.478831 eV
  Excitation energy:                                               1.163936 eV
  Excitation energy:                                               1.040420 eV
  Excitation energy:                                               0.380453 eV
  Excitation energy:                                               1.802399 eV
  Excitation energy:                                               1.487505 eV
  Excitation energy:                                               1.363988 eV
  Excitation energy:                                               0.704021 eV
  Excitation energy:                                               0.323568 eV
  Excitation energy:                                               2.822110 eV
  Excitation energy:                                               2.507215 eV
  Excitation energy:                                               2.383699 eV
  Excitation energy:                                               1.723732 eV
  Excitation energy:                                               1.343279 eV
  Excitation energy:                                               1.019711 eV
  Excitation energy:                                               3.426413 eV
  Excitation energy:                                               3.111519 eV
  Excitation energy:                                               2.988002 eV
  Excitation energy:                                               2.328035 eV
  Excitation energy:                                               1.947582 eV
  Excitation energy:                                               1.624014 eV
  Excitation energy:                                               0.604303 eV
  Excitation energy:                                               3.678587 eV
  Excitation energy:                                               3.363693 eV
  Excitation energy:                                               3.240177 eV
  Excitation energy:                                               2.580209 eV
  Excitation energy:                                               2.199756 eV
  Excitation energy:                                               1.876188 eV
  Excitation energy:                                               0.856477 eV
  Excitation energy:                                               0.252174 eV
  Excitation energy:                                               3.909531 eV
  Excitation energy:                                               3.594637 eV
  Excitation energy:                                               3.471121 eV
  Excitation energy:                                               2.811153 eV
  Excitation energy:                                               2.430701 eV
  Excitation energy:                                               2.107132 eV
  Excitation energy:                                               1.087421 eV
  Excitation energy:                                               0.483118 eV
  Excitation energy:                                               0.230944 eV

                    Orbital Energies (a.u.)
 --------------------------------------------------------------

 Alpha MOs
 -- Occupied --
-11.2351 -11.2334  -1.0323  -0.7901  -0.6410  -0.5823  -0.5045  -0.3740

          Ground-State Mulliken Net Atomic Charges

     Atom                 Charge (a.u.)
  ----------------------------------------
      1 H                     0.048223
      2 C                    -0.095094
      3 H                     0.047715
      4 C                    -0.095096
      5 H                     0.046943
      6 H                     0.047310
  ----------------------------------------
  Sum of atomic charges =     0.000000

                    Cartesian Multipole Moments
 -----------------------------------------------------------------
    Charge (ESU x 10^10)
                -0.0000
    Dipole Moment (Debye)
         X      -0.0032      Y       0.0026      Z       0.0010
       Tot       0.0042
    Quadrupole Moments (Debye-Ang)
        XX     -12.2019     XY      -0.0689     YY     -12.2715
        XZ       0.1531     YZ       0.1926     ZZ     -15.5392

 Total job time:  155.59s(wall), 591.90s(cpu)
        *  Thank you very much for using Q-Chem.  Have a nice day.  *
