 Q-Chem 5.4 (devel), Q-Chem, Inc., Pleasanton, CA (2021)
 Q-Chem 5.4.1 for Intel X86 EM64T Linux

User input:
--------------------------------------------------------------
$comment
generated from CCJob.Templates
$end

$rem
sym_ignore = true
method = adc(2)
ee_states = 10
basis = cc-pVDZ
mem_static = 1024
mem_total = 40000
adc_davidson_maxiter = 900
adc_davidson_conv = 6
adc_print = 3
adc_prop_es = true
adc_prop_es2es = true
adc_prop_tpa = true
molden_format = True
state_analysis = true
print_orbitals = 15
gen_scfman = false
fde_export_density = true
fde_details = 3
$end

$molecule
0 1
H -0.0348278765 -0.2442097827 0.0636489606
C -1.0865972949 -0.5242748755 -0.0023551776
H -1.313264467 -1.5767591607 -0.0757276926
C -2.043634118 0.3926884087 0.0061254933
H -1.8137616575 1.4459188338 0.0804456828
H -3.085977293 0.114931858 -0.0593381042
$end
--------------------------------------------------------------

             Standard Nuclear Orientation (Angstroms)
    I     Atom           X                Y                Z
 ----------------------------------------------------------------
    1      H      -0.0348278765    -0.2442097827     0.0636489606
    2      C      -1.0865972949    -0.5242748755    -0.0023551776
    3      H      -1.3132644670    -1.5767591607    -0.0757276926
    4      C      -2.0436341180     0.3926884087     0.0061254933
    5      H      -1.8137616575     1.4459188338     0.0804456828
    6      H      -3.0859772930     0.1149318580    -0.0593381042
 ----------------------------------------------------------------

   11     -78.0400624887      7.95E-09 Convergence criterion met
 Total energy in the final basis set = -78.04006249
  Excited state 1 (singlet, A)                                     [converged]
  Term symbol:  2 (1) A                                     R^2 =  3.19736e-13
  Excitation energy:                                               8.800412 eV
  Excited state 2 (singlet, A)                                     [converged]
  Term symbol:  3 (1) A                                     R^2 =  2.09480e-13
  Excitation energy:                                               9.050897 eV
  Excited state 3 (singlet, A)                                     [converged]
  Term symbol:  4 (1) A                                     R^2 =  1.87987e-13
  Excitation energy:                                               9.201362 eV
  Excited state 4 (singlet, A)                                     [converged]
  Term symbol:  5 (1) A                                     R^2 =  1.94259e-13
  Excitation energy:                                               9.836146 eV
  Excited state 5 (singlet, A)                                     [converged]
  Term symbol:  6 (1) A                                     R^2 =  2.52578e-13
  Excitation energy:                                              10.258822 eV
  Excited state 6 (singlet, A)                                     [converged]
  Term symbol:  7 (1) A                                     R^2 =  3.97549e-13
  Excitation energy:                                              10.594817 eV
  Excited state 7 (singlet, A)                                     [converged]
  Term symbol:  8 (1) A                                     R^2 =  6.76007e-11
  Excitation energy:                                              11.513851 eV
  Excited state 8 (singlet, A)                                     [converged]
  Term symbol:  9 (1) A                                     R^2 =  1.35483e-09
  Excitation energy:                                              12.203572 eV
  Excited state 9 (singlet, A)                                     [converged]
  Term symbol:  10 (1) A                                    R^2 =  3.17410e-08
  Excitation energy:                                              12.455681 eV
  Excited state 10 (singlet, A)                                     [converged]
  Term symbol:  11 (1) A                                    R^2 =  9.48769e-07
  Excitation energy:                                              12.581606 eV
  Excitation energy:                                               0.250485 eV
  Excitation energy:                                               0.400950 eV
  Excitation energy:                                               0.150465 eV
  Excitation energy:                                               1.035734 eV
  Excitation energy:                                               0.785249 eV
  Excitation energy:                                               0.634784 eV
  Excitation energy:                                               1.458410 eV
  Excitation energy:                                               1.207925 eV
  Excitation energy:                                               1.057460 eV
  Excitation energy:                                               0.422676 eV
  Excitation energy:                                               1.794405 eV
  Excitation energy:                                               1.543920 eV
  Excitation energy:                                               1.393455 eV
  Excitation energy:                                               0.758671 eV
  Excitation energy:                                               0.335994 eV
  Excitation energy:                                               2.713439 eV
  Excitation energy:                                               2.462954 eV
  Excitation energy:                                               2.312489 eV
  Excitation energy:                                               1.677705 eV
  Excitation energy:                                               1.255028 eV
  Excitation energy:                                               0.919034 eV
  Excitation energy:                                               3.403160 eV
  Excitation energy:                                               3.152675 eV
  Excitation energy:                                               3.002210 eV
  Excitation energy:                                               2.367426 eV
  Excitation energy:                                               1.944750 eV
  Excitation energy:                                               1.608755 eV
  Excitation energy:                                               0.689722 eV
  Excitation energy:                                               3.655269 eV
  Excitation energy:                                               3.404784 eV
  Excitation energy:                                               3.254319 eV
  Excitation energy:                                               2.619535 eV
  Excitation energy:                                               2.196859 eV
  Excitation energy:                                               1.860864 eV
  Excitation energy:                                               0.941830 eV
  Excitation energy:                                               0.252109 eV
  Excitation energy:                                               3.781194 eV
  Excitation energy:                                               3.530709 eV
  Excitation energy:                                               3.380244 eV
  Excitation energy:                                               2.745460 eV
  Excitation energy:                                               2.322784 eV
  Excitation energy:                                               1.986789 eV
  Excitation energy:                                               1.067755 eV
  Excitation energy:                                               0.378034 eV
  Excitation energy:                                               0.125925 eV

                    Orbital Energies (a.u.)
 --------------------------------------------------------------

 Alpha MOs
 -- Occupied --
-11.2345 -11.2326  -1.0342  -0.7886  -0.6408  -0.5836  -0.5024  -0.3758

          Ground-State Mulliken Net Atomic Charges

     Atom                 Charge (a.u.)
  ----------------------------------------
      1 H                     0.049218
      2 C                    -0.097903
      3 H                     0.046897
      4 C                    -0.092177
      5 H                     0.047077
      6 H                     0.046888
  ----------------------------------------
  Sum of atomic charges =     0.000000

                    Cartesian Multipole Moments
 -----------------------------------------------------------------
    Charge (ESU x 10^10)
                -0.0000
    Dipole Moment (Debye)
         X      -0.0045      Y      -0.0016      Z       0.0002
       Tot       0.0047
    Quadrupole Moments (Debye-Ang)
        XX     -12.2418     XY      -0.0614     YY     -12.2433
        XZ       0.1508     YZ       0.1936     ZZ     -15.5214

 Total job time:  68.06s(wall), 181.84s(cpu)
        *  Thank you very much for using Q-Chem.  Have a nice day.  *
