 Q-Chem 5.4 (devel), Q-Chem, Inc., Pleasanton, CA (2021)
 Q-Chem 5.4.1 for Intel X86 EM64T Linux

User input:
--------------------------------------------------------------
$comment
generated from CCJob.Templates
$end

$rem
sym_ignore = true
method = adc(2)
ee_states = 10
basis = cc-pVDZ
mem_static = 1024
mem_total = 30000
adc_davidson_maxiter = 900
adc_davidson_conv = 6
adc_print = 3
adc_prop_es = true
adc_prop_es2es = true
adc_prop_tpa = true
molden_format = True
state_analysis = true
print_orbitals = 15
gen_scfman = false
fde_export_density = true
fde_details = 3
$end

$molecule
0 1
H -0.0348278765 -0.2442097827 0.0636489606
C -1.0765972949 -0.5242748755 -0.0023551776
H -1.313264467 -1.5767591607 -0.0757276926
C -2.043634118 0.3876884087 0.0061254933
H -1.8137616575 1.4459188338 0.0804456828
H -3.085977293 0.114931858 -0.0593381042
$end
--------------------------------------------------------------

             Standard Nuclear Orientation (Angstroms)
    I     Atom           X                Y                Z
 ----------------------------------------------------------------
    1      H      -0.0348278765    -0.2442097827     0.0636489606
    2      C      -1.0765972949    -0.5242748755    -0.0023551776
    3      H      -1.3132644670    -1.5767591607    -0.0757276926
    4      C      -2.0436341180     0.3876884087     0.0061254933
    5      H      -1.8137616575     1.4459188338     0.0804456828
    6      H      -3.0859772930     0.1149318580    -0.0593381042
 ----------------------------------------------------------------

   11     -78.0400015983      5.00E-09 Convergence criterion met
 Total energy in the final basis set = -78.04000160
  Excited state 1 (singlet, A)                                     [converged]
  Term symbol:  2 (1) A                                     R^2 =  1.26650e-13
  Excitation energy:                                               8.767104 eV
  Excited state 2 (singlet, A)                                     [converged]
  Term symbol:  3 (1) A                                     R^2 =  1.51207e-13
  Excitation energy:                                               9.051344 eV
  Excited state 3 (singlet, A)                                     [converged]
  Term symbol:  4 (1) A                                     R^2 =  1.39262e-13
  Excitation energy:                                               9.185303 eV
  Excited state 4 (singlet, A)                                     [converged]
  Term symbol:  5 (1) A                                     R^2 =  3.34888e-13
  Excitation energy:                                               9.834595 eV
  Excited state 5 (singlet, A)                                     [converged]
  Term symbol:  6 (1) A                                     R^2 =  2.82782e-13
  Excitation energy:                                              10.235289 eV
  Excited state 6 (singlet, A)                                     [converged]
  Term symbol:  7 (1) A                                     R^2 =  4.66726e-13
  Excitation energy:                                              10.563719 eV
  Excited state 7 (singlet, A)                                     [converged]
  Term symbol:  8 (1) A                                     R^2 =  4.94836e-11
  Excitation energy:                                              11.535463 eV
  Excited state 8 (singlet, A)                                     [converged]
  Term symbol:  9 (1) A                                     R^2 =  8.61434e-12
  Excitation energy:                                              12.183237 eV
  Excited state 9 (singlet, A)                                     [converged]
  Term symbol:  10 (1) A                                    R^2 =  1.13202e-10
  Excitation energy:                                              12.435122 eV
  Excited state 10 (singlet, A)                                     [converged]
  Term symbol:  11 (1) A                                    R^2 =  8.18794e-07
  Excitation energy:                                              12.614494 eV
  Excitation energy:                                               0.284241 eV
  Excitation energy:                                               0.418199 eV
  Excitation energy:                                               0.133959 eV
  Excitation energy:                                               1.067491 eV
  Excitation energy:                                               0.783251 eV
  Excitation energy:                                               0.649292 eV
  Excitation energy:                                               1.468185 eV
  Excitation energy:                                               1.183945 eV
  Excitation energy:                                               1.049986 eV
  Excitation energy:                                               0.400694 eV
  Excitation energy:                                               1.796616 eV
  Excitation energy:                                               1.512375 eV
  Excitation energy:                                               1.378416 eV
  Excitation energy:                                               0.729124 eV
  Excitation energy:                                               0.328431 eV
  Excitation energy:                                               2.768359 eV
  Excitation energy:                                               2.484118 eV
  Excitation energy:                                               2.350160 eV
  Excitation energy:                                               1.700868 eV
  Excitation energy:                                               1.300174 eV
  Excitation energy:                                               0.971743 eV
  Excitation energy:                                               3.416133 eV
  Excitation energy:                                               3.131893 eV
  Excitation energy:                                               2.997934 eV
  Excitation energy:                                               2.348642 eV
  Excitation energy:                                               1.947948 eV
  Excitation energy:                                               1.619517 eV
  Excitation energy:                                               0.647774 eV
  Excitation energy:                                               3.668018 eV
  Excitation energy:                                               3.383778 eV
  Excitation energy:                                               3.249819 eV
  Excitation energy:                                               2.600527 eV
  Excitation energy:                                               2.199833 eV
  Excitation energy:                                               1.871403 eV
  Excitation energy:                                               0.899659 eV
  Excitation energy:                                               0.251885 eV
  Excitation energy:                                               3.847390 eV
  Excitation energy:                                               3.563150 eV
  Excitation energy:                                               3.429191 eV
  Excitation energy:                                               2.779899 eV
  Excitation energy:                                               2.379205 eV
  Excitation energy:                                               2.050774 eV
  Excitation energy:                                               1.079031 eV
  Excitation energy:                                               0.431257 eV
  Excitation energy:                                               0.179372 eV

                    Orbital Energies (a.u.)
 --------------------------------------------------------------

 Alpha MOs
 -- Occupied --
-11.2348 -11.2331  -1.0332  -0.7892  -0.6410  -0.5827  -0.5035  -0.3749

          Ground-State Mulliken Net Atomic Charges

     Atom                 Charge (a.u.)
  ----------------------------------------
      1 H                     0.048083
      2 C                    -0.093542
      3 H                     0.047277
      4 C                    -0.096849
      5 H                     0.047763
      6 H                     0.047269
  ----------------------------------------
  Sum of atomic charges =     0.000000

                    Cartesian Multipole Moments
 -----------------------------------------------------------------
    Charge (ESU x 10^10)
                -0.0000
    Dipole Moment (Debye)
         X      -0.0034      Y       0.0003      Z       0.0006
       Tot       0.0035
    Quadrupole Moments (Debye-Ang)
        XX     -12.1950     XY      -0.0586     YY     -12.2872
        XZ       0.1538     YZ       0.1914     ZZ     -15.5319

 Total job time:  332.22s(wall), 699.07s(cpu)
        *  Thank you very much for using Q-Chem.  Have a nice day.  *
