 Q-Chem 5.4 (devel), Q-Chem, Inc., Pleasanton, CA (2021)
 Q-Chem 5.4.1 for Intel X86 EM64T Linux

User input:
--------------------------------------------------------------
$comment
generated from CCJob.Templates
$end

$rem
sym_ignore = true
method = adc(2)
ee_states = 10
basis = cc-pVDZ
mem_static = 1024
mem_total = 40000
adc_davidson_maxiter = 900
adc_davidson_conv = 6
adc_print = 3
adc_prop_es = true
adc_prop_es2es = true
adc_prop_tpa = true
molden_format = True
state_analysis = true
print_orbitals = 15
gen_scfman = false
fde_export_density = true
fde_details = 3
$end

$molecule
0 1
H -0.0348278765 -0.2442097827 0.0636489606
C -1.0765972949 -0.5242748755 -0.0023551776
H -1.313264467 -1.5767591607 -0.0757276926
C -2.043634118 0.3926884087 0.0061254933
H -1.8137616575 1.4459188338 0.0804456828
H -3.085977293 0.12493185799999999 -0.0593381042
$end
--------------------------------------------------------------

             Standard Nuclear Orientation (Angstroms)
    I     Atom           X                Y                Z
 ----------------------------------------------------------------
    1      H      -0.0348278765    -0.2442097827     0.0636489606
    2      C      -1.0765972949    -0.5242748755    -0.0023551776
    3      H      -1.3132644670    -1.5767591607    -0.0757276926
    4      C      -2.0436341180     0.3926884087     0.0061254933
    5      H      -1.8137616575     1.4459188338     0.0804456828
    6      H      -3.0859772930     0.1249318580    -0.0593381042
 ----------------------------------------------------------------

   11     -78.0399102331      6.46E-09 Convergence criterion met
 Total energy in the final basis set = -78.03991023
  Excited state 1 (singlet, A)                                     [converged]
  Term symbol:  2 (1) A                                     R^2 =  7.14721e-14
  Excitation energy:                                               8.736340 eV
  Excited state 2 (singlet, A)                                     [converged]
  Term symbol:  3 (1) A                                     R^2 =  2.16549e-13
  Excitation energy:                                               9.048614 eV
  Excited state 3 (singlet, A)                                     [converged]
  Term symbol:  4 (1) A                                     R^2 =  2.14824e-13
  Excitation energy:                                               9.179444 eV
  Excited state 4 (singlet, A)                                     [converged]
  Term symbol:  5 (1) A                                     R^2 =  6.03394e-13
  Excitation energy:                                               9.836872 eV
  Excited state 5 (singlet, A)                                     [converged]
  Term symbol:  6 (1) A                                     R^2 =  3.93973e-13
  Excitation energy:                                              10.218896 eV
  Excited state 6 (singlet, A)                                     [converged]
  Term symbol:  7 (1) A                                     R^2 =  3.43163e-13
  Excitation energy:                                              10.542575 eV
  Excited state 7 (singlet, A)                                     [converged]
  Term symbol:  8 (1) A                                     R^2 =  1.81753e-11
  Excitation energy:                                              11.560558 eV
  Excited state 8 (singlet, A)                                     [converged]
  Term symbol:  9 (1) A                                     R^2 =  1.71236e-11
  Excitation energy:                                              12.160797 eV
  Excited state 9 (singlet, A)                                     [converged]
  Term symbol:  10 (1) A                                    R^2 =  2.49002e-10
  Excitation energy:                                              12.413543 eV
  Excited state 10 (singlet, A)                                     [converged]
  Term symbol:  11 (1) A                                    R^2 =  6.84290e-07
  Excitation energy:                                              12.646615 eV
  Excitation energy:                                               0.312274 eV
  Excitation energy:                                               0.443104 eV
  Excitation energy:                                               0.130830 eV
  Excitation energy:                                               1.100532 eV
  Excitation energy:                                               0.788258 eV
  Excitation energy:                                               0.657428 eV
  Excitation energy:                                               1.482556 eV
  Excitation energy:                                               1.170282 eV
  Excitation energy:                                               1.039452 eV
  Excitation energy:                                               0.382024 eV
  Excitation energy:                                               1.806235 eV
  Excitation energy:                                               1.493961 eV
  Excitation energy:                                               1.363131 eV
  Excitation energy:                                               0.705703 eV
  Excitation energy:                                               0.323679 eV
  Excitation energy:                                               2.824217 eV
  Excitation energy:                                               2.511943 eV
  Excitation energy:                                               2.381113 eV
  Excitation energy:                                               1.723685 eV
  Excitation energy:                                               1.341661 eV
  Excitation energy:                                               1.017982 eV
  Excitation energy:                                               3.424456 eV
  Excitation energy:                                               3.112182 eV
  Excitation energy:                                               2.981352 eV
  Excitation energy:                                               2.323924 eV
  Excitation energy:                                               1.941900 eV
  Excitation energy:                                               1.618222 eV
  Excitation energy:                                               0.600239 eV
  Excitation energy:                                               3.677202 eV
  Excitation energy:                                               3.364929 eV
  Excitation energy:                                               3.234098 eV
  Excitation energy:                                               2.576671 eV
  Excitation energy:                                               2.194646 eV
  Excitation energy:                                               1.870968 eV
  Excitation energy:                                               0.852985 eV
  Excitation energy:                                               0.252746 eV
  Excitation energy:                                               3.910275 eV
  Excitation energy:                                               3.598001 eV
  Excitation energy:                                               3.467171 eV
  Excitation energy:                                               2.809743 eV
  Excitation energy:                                               2.427719 eV
  Excitation energy:                                               2.104040 eV
  Excitation energy:                                               1.086058 eV
  Excitation energy:                                               0.485819 eV
  Excitation energy:                                               0.233072 eV

                    Orbital Energies (a.u.)
 --------------------------------------------------------------

 Alpha MOs
 -- Occupied --
-11.2351 -11.2334  -1.0323  -0.7904  -0.6409  -0.5827  -0.5045  -0.3740

          Ground-State Mulliken Net Atomic Charges

     Atom                 Charge (a.u.)
  ----------------------------------------
      1 H                     0.048325
      2 C                    -0.095049
      3 H                     0.047770
      4 C                    -0.094696
      5 H                     0.046691
      6 H                     0.046959
  ----------------------------------------
  Sum of atomic charges =     0.000000

                    Cartesian Multipole Moments
 -----------------------------------------------------------------
    Charge (ESU x 10^10)
                 0.0000
    Dipole Moment (Debye)
         X      -0.0045      Y       0.0036      Z       0.0007
       Tot       0.0058
    Quadrupole Moments (Debye-Ang)
        XX     -12.1906     XY      -0.0792     YY     -12.2749
        XZ       0.1536     YZ       0.1919     ZZ     -15.5374

 Total job time:  79.86s(wall), 203.85s(cpu)
        *  Thank you very much for using Q-Chem.  Have a nice day.  *
