 Q-Chem 5.4 (devel), Q-Chem, Inc., Pleasanton, CA (2021)
 Q-Chem 5.4.1 for Intel X86 EM64T Linux

User input:
--------------------------------------------------------------
$comment
generated from CCJob.Templates
$end

$rem
sym_ignore = true
method = adc(2)
ee_states = 10
basis = cc-pVDZ
mem_static = 1024
mem_total = 30000
adc_davidson_maxiter = 900
adc_davidson_conv = 6
adc_print = 3
adc_prop_es = true
adc_prop_es2es = true
adc_prop_tpa = true
molden_format = True
state_analysis = true
print_orbitals = 15
gen_scfman = false
fde_export_density = true
fde_details = 3
$end

$molecule
0 1
H -0.0348278765 -0.2442097827 0.0636489606
C -1.0765972949 -0.5242748755 -0.0023551776
H -1.313264467 -1.5767591607 -0.0757276926
C -2.043634118 0.3926884087 0.0061254933
H -1.8137616575 1.4459188338 0.0804456828
H -3.085977293 0.109931858 -0.0593381042
$end
--------------------------------------------------------------

             Standard Nuclear Orientation (Angstroms)
    I     Atom           X                Y                Z
 ----------------------------------------------------------------
    1      H      -0.0348278765    -0.2442097827     0.0636489606
    2      C      -1.0765972949    -0.5242748755    -0.0023551776
    3      H      -1.3132644670    -1.5767591607    -0.0757276926
    4      C      -2.0436341180     0.3926884087     0.0061254933
    5      H      -1.8137616575     1.4459188338     0.0804456828
    6      H      -3.0859772930     0.1099318580    -0.0593381042
 ----------------------------------------------------------------

   11     -78.0399248304      1.55E-09 Convergence criterion met
 Total energy in the final basis set = -78.03992483
  Excited state 1 (singlet, A)                                     [converged]
  Term symbol:  2 (1) A                                     R^2 =  1.94349e-13
  Excitation energy:                                               8.737523 eV
  Excited state 2 (singlet, A)                                     [converged]
  Term symbol:  3 (1) A                                     R^2 =  1.34888e-13
  Excitation energy:                                               9.057072 eV
  Excited state 3 (singlet, A)                                     [converged]
  Term symbol:  4 (1) A                                     R^2 =  1.80432e-13
  Excitation energy:                                               9.166281 eV
  Excited state 4 (singlet, A)                                     [converged]
  Term symbol:  5 (1) A                                     R^2 =  3.14316e-13
  Excitation energy:                                               9.831595 eV
  Excited state 5 (singlet, A)                                     [converged]
  Term symbol:  6 (1) A                                     R^2 =  2.18160e-13
  Excitation energy:                                              10.208608 eV
  Excited state 6 (singlet, A)                                     [converged]
  Term symbol:  7 (1) A                                     R^2 =  6.13204e-13
  Excitation energy:                                              10.532605 eV
  Excited state 7 (singlet, A)                                     [converged]
  Term symbol:  8 (1) A                                     R^2 =  1.46049e-09
  Excitation energy:                                              11.554689 eV
  Excited state 8 (singlet, A)                                     [converged]
  Term symbol:  9 (1) A                                     R^2 =  2.41098e-10
  Excitation energy:                                              12.167562 eV
  Excited state 9 (singlet, A)                                     [converged]
  Term symbol:  10 (1) A                                    R^2 =  2.11027e-09
  Excitation energy:                                              12.419016 eV
  Excited state 10 (singlet, A)                                     [converged]
  Term symbol:  11 (1) A                                    R^2 =  7.76011e-07
  Excitation energy:                                              12.645070 eV
  Excitation energy:                                               0.319549 eV
  Excitation energy:                                               0.428757 eV
  Excitation energy:                                               0.109209 eV
  Excitation energy:                                               1.094072 eV
  Excitation energy:                                               0.774524 eV
  Excitation energy:                                               0.665315 eV
  Excitation energy:                                               1.471084 eV
  Excitation energy:                                               1.151536 eV
  Excitation energy:                                               1.042327 eV
  Excitation energy:                                               0.377012 eV
  Excitation energy:                                               1.795081 eV
  Excitation energy:                                               1.475533 eV
  Excitation energy:                                               1.366324 eV
  Excitation energy:                                               0.701009 eV
  Excitation energy:                                               0.323997 eV
  Excitation energy:                                               2.817166 eV
  Excitation energy:                                               2.497618 eV
  Excitation energy:                                               2.388409 eV
  Excitation energy:                                               1.723094 eV
  Excitation energy:                                               1.346082 eV
  Excitation energy:                                               1.022085 eV
  Excitation energy:                                               3.430039 eV
  Excitation energy:                                               3.110491 eV
  Excitation energy:                                               3.001282 eV
  Excitation energy:                                               2.335967 eV
  Excitation energy:                                               1.958955 eV
  Excitation energy:                                               1.634958 eV
  Excitation energy:                                               0.612873 eV
  Excitation energy:                                               3.681493 eV
  Excitation energy:                                               3.361944 eV
  Excitation energy:                                               3.252735 eV
  Excitation energy:                                               2.587420 eV
  Excitation energy:                                               2.210408 eV
  Excitation energy:                                               1.886411 eV
  Excitation energy:                                               0.864327 eV
  Excitation energy:                                               0.251453 eV
  Excitation energy:                                               3.907547 eV
  Excitation energy:                                               3.587998 eV
  Excitation energy:                                               3.478789 eV
  Excitation energy:                                               2.813474 eV
  Excitation energy:                                               2.436462 eV
  Excitation energy:                                               2.112465 eV
  Excitation energy:                                               1.090381 eV
  Excitation energy:                                               0.477507 eV
  Excitation energy:                                               0.226054 eV

                    Orbital Energies (a.u.)
 --------------------------------------------------------------

 Alpha MOs
 -- Occupied --
-11.2351 -11.2335  -1.0323  -0.7895  -0.6413  -0.5816  -0.5047  -0.3740

          Ground-State Mulliken Net Atomic Charges

     Atom                 Charge (a.u.)
  ----------------------------------------
      1 H                     0.048019
      2 C                    -0.095156
      3 H                     0.047605
      4 C                    -0.095929
      5 H                     0.047440
      6 H                     0.048021
  ----------------------------------------
  Sum of atomic charges =     0.000000

                    Cartesian Multipole Moments
 -----------------------------------------------------------------
    Charge (ESU x 10^10)
                -0.0000
    Dipole Moment (Debye)
         X      -0.0004      Y       0.0008      Z       0.0014
       Tot       0.0017
    Quadrupole Moments (Debye-Ang)
        XX     -12.2249     XY      -0.0484     YY     -12.2646
        XZ       0.1522     YZ       0.1941     ZZ     -15.5429

 Total job time:  106.57s(wall), 366.75s(cpu)
        *  Thank you very much for using Q-Chem.  Have a nice day.  *
