 Q-Chem 5.4 (devel), Q-Chem, Inc., Pleasanton, CA (2021)
 Q-Chem 5.4.1 for Intel X86 EM64T Linux

User input:
--------------------------------------------------------------
$comment
generated from CCJob.Templates
$end

$rem
sym_ignore = true
method = adc(2)
ee_states = 10
basis = cc-pVDZ
mem_static = 1024
mem_total = 30000
adc_davidson_maxiter = 900
adc_davidson_conv = 6
adc_print = 3
adc_prop_es = true
adc_prop_es2es = true
adc_prop_tpa = true
molden_format = True
state_analysis = true
print_orbitals = 15
gen_scfman = false
fde_export_density = true
fde_details = 3
$end

$molecule
0 1
H -0.0348278765 -0.2442097827 0.0636489606
C -1.0765972949 -0.5242748755 -0.0023551776
H -1.313264467 -1.5767591607 -0.0757276926
C -2.043634118 0.3926884087 0.0061254933
H -1.8187616574999999 1.4459188338 0.0804456828
H -3.085977293 0.114931858 -0.0593381042
$end
--------------------------------------------------------------

             Standard Nuclear Orientation (Angstroms)
    I     Atom           X                Y                Z
 ----------------------------------------------------------------
    1      H      -0.0348278765    -0.2442097827     0.0636489606
    2      C      -1.0765972949    -0.5242748755    -0.0023551776
    3      H      -1.3132644670    -1.5767591607    -0.0757276926
    4      C      -2.0436341180     0.3926884087     0.0061254933
    5      H      -1.8187616575     1.4459188338     0.0804456828
    6      H      -3.0859772930     0.1149318580    -0.0593381042
 ----------------------------------------------------------------

   11     -78.0399286413      4.38E-09 Convergence criterion met
 Total energy in the final basis set = -78.03992864
  Excited state 1 (singlet, A)                                     [converged]
  Term symbol:  2 (1) A                                     R^2 =  6.70377e-13
  Excitation energy:                                               8.736746 eV
  Excited state 2 (singlet, A)                                     [converged]
  Term symbol:  3 (1) A                                     R^2 =  3.11934e-13
  Excitation energy:                                               9.051705 eV
  Excited state 3 (singlet, A)                                     [converged]
  Term symbol:  4 (1) A                                     R^2 =  6.38014e-13
  Excitation energy:                                               9.174960 eV
  Excited state 4 (singlet, A)                                     [converged]
  Term symbol:  5 (1) A                                     R^2 =  3.13471e-13
  Excitation energy:                                               9.834857 eV
  Excited state 5 (singlet, A)                                     [converged]
  Term symbol:  6 (1) A                                     R^2 =  5.11588e-13
  Excitation energy:                                              10.215114 eV
  Excited state 6 (singlet, A)                                     [converged]
  Term symbol:  7 (1) A                                     R^2 =  7.80976e-13
  Excitation energy:                                              10.538799 eV
  Excited state 7 (singlet, A)                                     [converged]
  Term symbol:  8 (1) A                                     R^2 =  1.09101e-10
  Excitation energy:                                              11.558595 eV
  Excited state 8 (singlet, A)                                     [converged]
  Term symbol:  9 (1) A                                     R^2 =  1.53100e-10
  Excitation energy:                                              12.162954 eV
  Excited state 9 (singlet, A)                                     [converged]
  Term symbol:  10 (1) A                                    R^2 =  1.14288e-09
  Excitation energy:                                              12.415174 eV
  Excited state 10 (singlet, A)                                     [converged]
  Term symbol:  11 (1) A                                    R^2 =  5.08720e-07
  Excitation energy:                                              12.645963 eV
  Excitation energy:                                               0.314959 eV
  Excitation energy:                                               0.438213 eV
  Excitation energy:                                               0.123254 eV
  Excitation energy:                                               1.098111 eV
  Excitation energy:                                               0.783152 eV
  Excitation energy:                                               0.659898 eV
  Excitation energy:                                               1.478368 eV
  Excitation energy:                                               1.163409 eV
  Excitation energy:                                               1.040155 eV
  Excitation energy:                                               0.380257 eV
  Excitation energy:                                               1.802053 eV
  Excitation energy:                                               1.487094 eV
  Excitation energy:                                               1.363840 eV
  Excitation energy:                                               0.703942 eV
  Excitation energy:                                               0.323685 eV
  Excitation energy:                                               2.821848 eV
  Excitation energy:                                               2.506889 eV
  Excitation energy:                                               2.383635 eV
  Excitation energy:                                               1.723737 eV
  Excitation energy:                                               1.343480 eV
  Excitation energy:                                               1.019795 eV
  Excitation energy:                                               3.426207 eV
  Excitation energy:                                               3.111248 eV
  Excitation energy:                                               2.987994 eV
  Excitation energy:                                               2.328096 eV
  Excitation energy:                                               1.947839 eV
  Excitation energy:                                               1.624154 eV
  Excitation energy:                                               0.604359 eV
  Excitation energy:                                               3.678427 eV
  Excitation energy:                                               3.363468 eV
  Excitation energy:                                               3.240214 eV
  Excitation energy:                                               2.580316 eV
  Excitation energy:                                               2.200059 eV
  Excitation energy:                                               1.876374 eV
  Excitation energy:                                               0.856579 eV
  Excitation energy:                                               0.252220 eV
  Excitation energy:                                               3.909217 eV
  Excitation energy:                                               3.594258 eV
  Excitation energy:                                               3.471003 eV
  Excitation energy:                                               2.811106 eV
  Excitation energy:                                               2.430848 eV
  Excitation energy:                                               2.107164 eV
  Excitation energy:                                               1.087368 eV
  Excitation energy:                                               0.483009 eV
  Excitation energy:                                               0.230789 eV

                    Orbital Energies (a.u.)
 --------------------------------------------------------------

 Alpha MOs
 -- Occupied --
-11.2351 -11.2334  -1.0323  -0.7901  -0.6410  -0.5823  -0.5045  -0.3740

          Ground-State Mulliken Net Atomic Charges

     Atom                 Charge (a.u.)
  ----------------------------------------
      1 H                     0.048178
      2 C                    -0.095060
      3 H                     0.047767
      4 C                    -0.095210
      5 H                     0.046904
      6 H                     0.047422
  ----------------------------------------
  Sum of atomic charges =     0.000000

                    Cartesian Multipole Moments
 -----------------------------------------------------------------
    Charge (ESU x 10^10)
                -0.0000
    Dipole Moment (Debye)
         X      -0.0028      Y       0.0029      Z       0.0014
       Tot       0.0043
    Quadrupole Moments (Debye-Ang)
        XX     -12.2128     XY      -0.0699     YY     -12.2619
        XZ       0.1516     YZ       0.1935     ZZ     -15.5395

 Total job time:  87.72s(wall), 296.20s(cpu)
        *  Thank you very much for using Q-Chem.  Have a nice day.  *
