 Q-Chem 5.4 (devel), Q-Chem, Inc., Pleasanton, CA (2021)
 Q-Chem 5.4.1 for Intel X86 EM64T Linux

User input:
--------------------------------------------------------------
$comment
generated from CCJob.Templates
$end

$rem
sym_ignore = true
method = adc(2)
ee_states = 10
basis = cc-pVDZ
mem_static = 1024
mem_total = 40000
adc_davidson_maxiter = 900
adc_davidson_conv = 6
adc_print = 3
adc_prop_es = true
adc_prop_es2es = true
adc_prop_tpa = true
molden_format = True
state_analysis = true
print_orbitals = 15
gen_scfman = false
fde_export_density = true
$end

$molecule
0 1
H -0.0298278765   -0.2392097827   0.0686489606
C -1.0715972949   -0.5192748755   0.0026448224
H -1.3082644670   -1.5717591607   -0.0707276926
C -2.0386341180   0.3976884087    0.0111254933
H -1.8087616575   1.4509188338    0.0854456828
H -3.0809772930   0.1199318580    -0.0543381042
$end
--------------------------------------------------------------

             Standard Nuclear Orientation (Angstroms)
    I     Atom           X                Y                Z
 ----------------------------------------------------------------
    1      H      -0.0298278765    -0.2392097827     0.0686489606
    2      C      -1.0715972949    -0.5192748755     0.0026448224
    3      H      -1.3082644670    -1.5717591607    -0.0707276926
    4      C      -2.0386341180     0.3976884087     0.0111254933
    5      H      -1.8087616575     1.4509188338     0.0854456828
    6      H      -3.0809772930     0.1199318580    -0.0543381042
 ----------------------------------------------------------------

   11     -78.0399273106      2.33E-09 Convergence criterion met
 Total energy in the final basis set = -78.03992731
  Excited state 1 (singlet, A)                                     [converged]
  Term symbol:  2 (1) A                                     R^2 =  4.53550e-13
  Excitation energy:                                               8.737132 eV
  Excited state 2 (singlet, A)                                     [converged]
  Term symbol:  3 (1) A                                     R^2 =  3.48456e-13
  Excitation energy:                                               9.054454 eV
  Excited state 3 (singlet, A)                                     [converged]
  Term symbol:  4 (1) A                                     R^2 =  1.61662e-13
  Excitation energy:                                               9.170759 eV
  Excited state 4 (singlet, A)                                     [converged]
  Term symbol:  5 (1) A                                     R^2 =  1.27281e-13
  Excitation energy:                                               9.833357 eV
  Excited state 5 (singlet, A)                                     [converged]
  Term symbol:  6 (1) A                                     R^2 =  7.88887e-14
  Excitation energy:                                              10.212137 eV
  Excited state 6 (singlet, A)                                     [converged]
  Term symbol:  7 (1) A                                     R^2 =  1.05837e-13
  Excitation energy:                                              10.535814 eV
  Excited state 7 (singlet, A)                                     [converged]
  Term symbol:  8 (1) A                                     R^2 =  1.58426e-10
  Excitation energy:                                              11.556892 eV
  Excited state 8 (singlet, A)                                     [converged]
  Term symbol:  9 (1) A                                     R^2 =  5.38339e-11
  Excitation energy:                                              12.165406 eV
  Excited state 9 (singlet, A)                                     [converged]
  Term symbol:  10 (1) A                                    R^2 =  5.18987e-10
  Excitation energy:                                              12.417150 eV
  Excited state 10 (singlet, A)                                     [converged]
  Term symbol:  11 (1) A                                    R^2 =  5.17472e-07
  Excitation energy:                                              12.645754 eV
  Excitation energy:                                               0.317322 eV
  Excitation energy:                                               0.433627 eV
  Excitation energy:                                               0.116305 eV
  Excitation energy:                                               1.096225 eV
  Excitation energy:                                               0.778903 eV
  Excitation energy:                                               0.662598 eV
  Excitation energy:                                               1.475005 eV
  Excitation energy:                                               1.157683 eV
  Excitation energy:                                               1.041378 eV
  Excitation energy:                                               0.378780 eV
  Excitation energy:                                               1.798682 eV
  Excitation energy:                                               1.481360 eV
  Excitation energy:                                               1.365055 eV
  Excitation energy:                                               0.702457 eV
  Excitation energy:                                               0.323677 eV
  Excitation energy:                                               2.819760 eV
  Excitation energy:                                               2.502438 eV
  Excitation energy:                                               2.386133 eV
  Excitation energy:                                               1.723535 eV
  Excitation energy:                                               1.344755 eV
  Excitation energy:                                               1.021078 eV
  Excitation energy:                                               3.428274 eV
  Excitation energy:                                               3.110952 eV
  Excitation energy:                                               2.994647 eV
  Excitation energy:                                               2.332049 eV
  Excitation energy:                                               1.953269 eV
  Excitation energy:                                               1.629592 eV
  Excitation energy:                                               0.608514 eV
  Excitation energy:                                               3.680017 eV
  Excitation energy:                                               3.362696 eV
  Excitation energy:                                               3.246391 eV
  Excitation energy:                                               2.583793 eV
  Excitation energy:                                               2.205013 eV
  Excitation energy:                                               1.881335 eV
  Excitation energy:                                               0.860258 eV
  Excitation energy:                                               0.251744 eV
  Excitation energy:                                               3.908622 eV
  Excitation energy:                                               3.591301 eV
  Excitation energy:                                               3.474995 eV
  Excitation energy:                                               2.812398 eV
  Excitation energy:                                               2.433618 eV
  Excitation energy:                                               2.109940 eV
  Excitation energy:                                               1.088862 eV
  Excitation energy:                                               0.480349 eV
  Excitation energy:                                               0.228605 eV

                    Orbital Energies (a.u.)
 --------------------------------------------------------------

 Alpha MOs
 -- Occupied --
-11.2351 -11.2334  -1.0323  -0.7898  -0.6411  -0.5819  -0.5046  -0.3740

          Ground-State Mulliken Net Atomic Charges

     Atom                 Charge (a.u.)
  ----------------------------------------
      1 H                     0.048121
      2 C                    -0.095130
      3 H                     0.047660
      4 C                    -0.095507
      5 H                     0.047192
      6 H                     0.047664
  ----------------------------------------
  Sum of atomic charges =     0.000000

                    Cartesian Multipole Moments
 -----------------------------------------------------------------
    Charge (ESU x 10^10)
                 0.0000
    Dipole Moment (Debye)
         X      -0.0018      Y       0.0017      Z       0.0012
       Tot       0.0028
    Quadrupole Moments (Debye-Ang)
        XX     -12.2133     XY      -0.0586     YY     -12.2681
        XZ       0.1527     YZ       0.1934     ZZ     -15.5411

 Total job time:  129.53s(wall), 372.00s(cpu)
        *  Thank you very much for using Q-Chem.  Have a nice day.  *
