 Q-Chem 5.4 (devel), Q-Chem, Inc., Pleasanton, CA (2021)
 Q-Chem 5.4.1 for Intel X86 EM64T Linux

User input:
--------------------------------------------------------------
$comment
generated from CCJob.Templates
$end

$rem
sym_ignore = true
method = adc(2)
ee_states = 10
basis = cc-pVDZ
mem_static = 1024
mem_total = 40000
adc_davidson_maxiter = 900
adc_davidson_conv = 6
adc_print = 3
adc_prop_es = true
adc_prop_es2es = true
adc_prop_tpa = true
molden_format = True
state_analysis = true
print_orbitals = 15
gen_scfman = false
fde_export_density = true
fde_details = 3
$end

$molecule
0 1
H -0.0348278765 -0.2442097827 0.0636489606
C -1.0765972949 -0.5242748755 -0.0023551776
H -1.303264467 -1.5767591607 -0.0757276926
C -2.043634118 0.3926884087 0.0061254933
H -1.8137616575 1.4459188338 0.0804456828
H -3.085977293 0.114931858 -0.0593381042
$end
--------------------------------------------------------------

             Standard Nuclear Orientation (Angstroms)
    I     Atom           X                Y                Z
 ----------------------------------------------------------------
    1      H      -0.0348278765    -0.2442097827     0.0636489606
    2      C      -1.0765972949    -0.5242748755    -0.0023551776
    3      H      -1.3032644670    -1.5767591607    -0.0757276926
    4      C      -2.0436341180     0.3926884087     0.0061254933
    5      H      -1.8137616575     1.4459188338     0.0804456828
    6      H      -3.0859772930     0.1149318580    -0.0593381042
 ----------------------------------------------------------------

   11     -78.0399410561      3.25E-09 Convergence criterion met
 Total energy in the final basis set = -78.03994106
  Excited state 1 (singlet, A)                                     [converged]
  Term symbol:  2 (1) A                                     R^2 =  7.20802e-13
  Excitation energy:                                               8.736374 eV
  Excited state 2 (singlet, A)                                     [converged]
  Term symbol:  3 (1) A                                     R^2 =  6.44570e-13
  Excitation energy:                                               9.049210 eV
  Excited state 3 (singlet, A)                                     [converged]
  Term symbol:  4 (1) A                                     R^2 =  5.96049e-13
  Excitation energy:                                               9.179337 eV
  Excited state 4 (singlet, A)                                     [converged]
  Term symbol:  5 (1) A                                     R^2 =  5.12019e-13
  Excitation energy:                                               9.836329 eV
  Excited state 5 (singlet, A)                                     [converged]
  Term symbol:  6 (1) A                                     R^2 =  3.57523e-13
  Excitation energy:                                              10.218120 eV
  Excited state 6 (singlet, A)                                     [converged]
  Term symbol:  7 (1) A                                     R^2 =  6.02227e-13
  Excitation energy:                                              10.542028 eV
  Excited state 7 (singlet, A)                                     [converged]
  Term symbol:  8 (1) A                                     R^2 =  1.27860e-10
  Excitation energy:                                              11.560704 eV
  Excited state 8 (singlet, A)                                     [converged]
  Term symbol:  9 (1) A                                     R^2 =  2.12516e-10
  Excitation energy:                                              12.160411 eV
  Excited state 9 (singlet, A)                                     [converged]
  Term symbol:  10 (1) A                                    R^2 =  2.00348e-09
  Excitation energy:                                              12.413277 eV
  Excited state 10 (singlet, A)                                     [converged]
  Term symbol:  11 (1) A                                    R^2 =  6.09825e-07
  Excitation energy:                                              12.646382 eV
  Excitation energy:                                               0.312836 eV
  Excitation energy:                                               0.442963 eV
  Excitation energy:                                               0.130127 eV
  Excitation energy:                                               1.099955 eV
  Excitation energy:                                               0.787119 eV
  Excitation energy:                                               0.656992 eV
  Excitation energy:                                               1.481746 eV
  Excitation energy:                                               1.168910 eV
  Excitation energy:                                               1.038783 eV
  Excitation energy:                                               0.381791 eV
  Excitation energy:                                               1.805654 eV
  Excitation energy:                                               1.492818 eV
  Excitation energy:                                               1.362691 eV
  Excitation energy:                                               0.705699 eV
  Excitation energy:                                               0.323908 eV
  Excitation energy:                                               2.824330 eV
  Excitation energy:                                               2.511494 eV
  Excitation energy:                                               2.381367 eV
  Excitation energy:                                               1.724375 eV
  Excitation energy:                                               1.342584 eV
  Excitation energy:                                               1.018676 eV
  Excitation energy:                                               3.424037 eV
  Excitation energy:                                               3.111201 eV
  Excitation energy:                                               2.981074 eV
  Excitation energy:                                               2.324082 eV
  Excitation energy:                                               1.942291 eV
  Excitation energy:                                               1.618383 eV
  Excitation energy:                                               0.599707 eV
  Excitation energy:                                               3.676903 eV
  Excitation energy:                                               3.364067 eV
  Excitation energy:                                               3.233940 eV
  Excitation energy:                                               2.576948 eV
  Excitation energy:                                               2.195157 eV
  Excitation energy:                                               1.871249 eV
  Excitation energy:                                               0.852573 eV
  Excitation energy:                                               0.252866 eV
  Excitation energy:                                               3.910008 eV
  Excitation energy:                                               3.597172 eV
  Excitation energy:                                               3.467045 eV
  Excitation energy:                                               2.810053 eV
  Excitation energy:                                               2.428262 eV
  Excitation energy:                                               2.104353 eV
  Excitation energy:                                               1.085678 eV
  Excitation energy:                                               0.485970 eV
  Excitation energy:                                               0.233105 eV

                    Orbital Energies (a.u.)
 --------------------------------------------------------------

 Alpha MOs
 -- Occupied --
-11.2351 -11.2334  -1.0323  -0.7904  -0.6408  -0.5826  -0.5045  -0.3740

          Ground-State Mulliken Net Atomic Charges

     Atom                 Charge (a.u.)
  ----------------------------------------
      1 H                     0.047641
      2 C                    -0.094513
      3 H                     0.047070
      4 C                    -0.095381
      5 H                     0.047406
      6 H                     0.047776
  ----------------------------------------
  Sum of atomic charges =     0.000000

                    Cartesian Multipole Moments
 -----------------------------------------------------------------
    Charge (ESU x 10^10)
                 0.0000
    Dipole Moment (Debye)
         X       0.0001      Y      -0.0007      Z       0.0008
       Tot       0.0011
    Quadrupole Moments (Debye-Ang)
        XX     -12.2246     XY      -0.0737     YY     -12.2549
        XZ       0.1518     YZ       0.1937     ZZ     -15.5379

 Total job time:  69.36s(wall), 190.00s(cpu)
        *  Thank you very much for using Q-Chem.  Have a nice day.  *
