 Q-Chem 5.4 (devel), Q-Chem, Inc., Pleasanton, CA (2021)
 Q-Chem 5.4.1 for Intel X86 EM64T Linux

User input:
--------------------------------------------------------------
$comment
generated from CCJob.Templates
$end

$rem
sym_ignore = true
method = adc(2)
ee_states = 10
basis = cc-pVDZ
mem_static = 1024
mem_total = 40000
adc_davidson_maxiter = 900
adc_davidson_conv = 6
adc_print = 3
adc_prop_es = true
adc_prop_es2es = true
adc_prop_tpa = true
molden_format = True
state_analysis = true
print_orbitals = 15
gen_scfman = false
fde_export_density = true
fde_details = 3
$end

$molecule
0 1
H -0.02194708741525475 -0.24512819475341674 0.06522414125510734
C -1.0772537151036021 -0.5250433510116594 -0.0023690403972206403
H -1.3030707118373772 -1.5927357603413281 -0.07777242246468828
C -2.044102353103499 0.39321853068825374 0.006603919902788594
H -1.8233765310372885 1.462783985158657 0.0818463040352637
H -3.101534778915203 0.11826061054647982 -0.06070418404489635
$end
--------------------------------------------------------------

             Standard Nuclear Orientation (Angstroms)
    I     Atom           X                Y                Z
 ----------------------------------------------------------------
    1      H      -0.0219470874    -0.2451281948     0.0652241413
    2      C      -1.0772537151    -0.5250433510    -0.0023690404
    3      H      -1.3030707118    -1.5927357603    -0.0777724225
    4      C      -2.0441023531     0.3932185307     0.0066039199
    5      H      -1.8233765310     1.4627839852     0.0818463040
    6      H      -3.1015347789     0.1182606105    -0.0607041840
 ----------------------------------------------------------------

   11     -78.0396474749      3.25E-09 Convergence criterion met
 Total energy in the final basis set = -78.03964747
  Excited state 1 (singlet, A)                                     [converged]
  Term symbol:  2 (1) A                                     R^2 =  8.90569e-10
  Excitation energy:                                               8.731814 eV
  Excited state 2 (singlet, A)                                     [converged]
  Term symbol:  3 (1) A                                     R^2 =  4.64951e-12
  Excitation energy:                                               8.952359 eV
  Excited state 3 (singlet, A)                                     [converged]
  Term symbol:  4 (1) A                                     R^2 =  1.42184e-11
  Excitation energy:                                               9.141640 eV
  Excited state 4 (singlet, A)                                     [converged]
  Term symbol:  5 (1) A                                     R^2 =  1.31943e-11
  Excitation energy:                                               9.738232 eV
  Excited state 5 (singlet, A)                                     [converged]
  Term symbol:  6 (1) A                                     R^2 =  4.79638e-11
  Excitation energy:                                              10.158422 eV
  Excited state 6 (singlet, A)                                     [converged]
  Term symbol:  7 (1) A                                     R^2 =  4.51303e-10
  Excitation energy:                                              10.520819 eV
  Excited state 7 (singlet, A)                                     [converged]
  Term symbol:  8 (1) A                                     R^2 =  3.89102e-07
  Excitation energy:                                              11.433716 eV
  Excited state 8 (singlet, A)                                     [converged]
  Term symbol:  9 (1) A                                     R^2 =  9.24711e-08
  Excitation energy:                                              12.068303 eV
  Excited state 9 (singlet, A)                                     [converged]
  Term symbol:  10 (1) A                                    R^2 =  1.71142e-07
  Excitation energy:                                              12.346814 eV
  Excited state 10 (singlet, A)                                     [converged]
  Term symbol:  11 (1) A                                    R^2 =  9.09595e-07
  Excitation energy:                                              12.476695 eV
  Excitation energy:                                               0.220546 eV
  Excitation energy:                                               0.409826 eV
  Excitation energy:                                               0.189281 eV
  Excitation energy:                                               1.006419 eV
  Excitation energy:                                               0.785873 eV
  Excitation energy:                                               0.596592 eV
  Excitation energy:                                               1.426609 eV
  Excitation energy:                                               1.206063 eV
  Excitation energy:                                               1.016782 eV
  Excitation energy:                                               0.420190 eV
  Excitation energy:                                               1.789006 eV
  Excitation energy:                                               1.568460 eV
  Excitation energy:                                               1.379179 eV
  Excitation energy:                                               0.782587 eV
  Excitation energy:                                               0.362397 eV
  Excitation energy:                                               2.701903 eV
  Excitation energy:                                               2.481357 eV
  Excitation energy:                                               2.292076 eV
  Excitation energy:                                               1.695484 eV
  Excitation energy:                                               1.275294 eV
  Excitation energy:                                               0.912897 eV
  Excitation energy:                                               3.336489 eV
  Excitation energy:                                               3.115944 eV
  Excitation energy:                                               2.926663 eV
  Excitation energy:                                               2.330071 eV
  Excitation energy:                                               1.909881 eV
  Excitation energy:                                               1.547484 eV
  Excitation energy:                                               0.634587 eV
  Excitation energy:                                               3.615001 eV
  Excitation energy:                                               3.394455 eV
  Excitation energy:                                               3.205174 eV
  Excitation energy:                                               2.608582 eV
  Excitation energy:                                               2.188392 eV
  Excitation energy:                                               1.825995 eV
  Excitation energy:                                               0.913098 eV
  Excitation energy:                                               0.278511 eV
  Excitation energy:                                               3.744882 eV
  Excitation energy:                                               3.524336 eV
  Excitation energy:                                               3.335055 eV
  Excitation energy:                                               2.738463 eV
  Excitation energy:                                               2.318273 eV
  Excitation energy:                                               1.955876 eV
  Excitation energy:                                               1.042979 eV
  Excitation energy:                                               0.408392 eV
  Excitation energy:                                               0.129881 eV

                    Orbital Energies (a.u.)
 --------------------------------------------------------------

 Alpha MOs
 -- Occupied --
-11.2388 -11.2372  -1.0299  -0.7859  -0.6350  -0.5823  -0.4995  -0.3744

          Ground-State Mulliken Net Atomic Charges

     Atom                 Charge (a.u.)
  ----------------------------------------
      1 H                     0.052475
      2 C                    -0.103789
      3 H                     0.052484
      4 C                    -0.105711
      5 H                     0.052275
      6 H                     0.052265
  ----------------------------------------
  Sum of atomic charges =     0.000000

                    Cartesian Multipole Moments
 -----------------------------------------------------------------
    Charge (ESU x 10^10)
                -0.0000
    Dipole Moment (Debye)
         X      -0.0015      Y       0.0014      Z       0.0001
       Tot       0.0020
    Quadrupole Moments (Debye-Ang)
        XX     -12.2409     XY      -0.1073     YY     -12.2597
        XZ       0.1560     YZ       0.1986     ZZ     -15.6098

 Total job time:  118.44s(wall), 358.18s(cpu)
        *  Thank you very much for using Q-Chem.  Have a nice day.  *
