 Q-Chem 5.4 (devel), Q-Chem, Inc., Pleasanton, CA (2021)
 Q-Chem 5.4.1 for Intel X86 EM64T Linux

User input:
--------------------------------------------------------------
$comment
generated from CCJob.Templates
$end

$rem
sym_ignore = true
method = adc(2)
ee_states = 10
basis = cc-pVDZ
mem_static = 1024
mem_total = 40000
adc_davidson_maxiter = 900
adc_davidson_conv = 6
adc_print = 3
adc_prop_es = true
adc_prop_es2es = true
adc_prop_tpa = true
molden_format = True
state_analysis = true
print_orbitals = 15
gen_scfman = false
fde_export_density = true
fde_details = 3
$end

$molecule
0 1
H -0.0348278765 -0.2442097827 0.0636489606
C -1.0765972949 -0.5242748755 -0.0023551776
H -1.313264467 -1.5767591607 -0.0757276926
C -2.043634118 0.3926884087 -0.0038745067000000005
H -1.8137616575 1.4459188338 0.0804456828
H -3.085977293 0.114931858 -0.0593381042
$end
--------------------------------------------------------------

             Standard Nuclear Orientation (Angstroms)
    I     Atom           X                Y                Z
 ----------------------------------------------------------------
    1      H      -0.0348278765    -0.2442097827     0.0636489606
    2      C      -1.0765972949    -0.5242748755    -0.0023551776
    3      H      -1.3132644670    -1.5767591607    -0.0757276926
    4      C      -2.0436341180     0.3926884087    -0.0038745067
    5      H      -1.8137616575     1.4459188338     0.0804456828
    6      H      -3.0859772930     0.1149318580    -0.0593381042
 ----------------------------------------------------------------

   11     -78.0399005790      3.59E-09 Convergence criterion met
 Total energy in the final basis set = -78.03990058
  Excited state 1 (singlet, A)                                     [converged]
  Term symbol:  2 (1) A                                     R^2 =  8.19889e-14
  Excitation energy:                                               8.736826 eV
  Excited state 2 (singlet, A)                                     [converged]
  Term symbol:  3 (1) A                                     R^2 =  6.66701e-14
  Excitation energy:                                               9.053089 eV
  Excited state 3 (singlet, A)                                     [converged]
  Term symbol:  4 (1) A                                     R^2 =  4.06232e-14
  Excitation energy:                                               9.171088 eV
  Excited state 4 (singlet, A)                                     [converged]
  Term symbol:  5 (1) A                                     R^2 =  4.57854e-14
  Excitation energy:                                               9.833297 eV
  Excited state 5 (singlet, A)                                     [converged]
  Term symbol:  6 (1) A                                     R^2 =  3.06338e-13
  Excitation energy:                                              10.212055 eV
  Excited state 6 (singlet, A)                                     [converged]
  Term symbol:  7 (1) A                                     R^2 =  7.00638e-13
  Excitation energy:                                              10.535738 eV
  Excited state 7 (singlet, A)                                     [converged]
  Term symbol:  8 (1) A                                     R^2 =  1.24321e-11
  Excitation energy:                                              11.555957 eV
  Excited state 8 (singlet, A)                                     [converged]
  Term symbol:  9 (1) A                                     R^2 =  1.57047e-09
  Excitation energy:                                              12.164962 eV
  Excited state 9 (singlet, A)                                     [converged]
  Term symbol:  10 (1) A                                    R^2 =  2.07026e-08
  Excitation energy:                                              12.416754 eV
  Excited state 10 (singlet, A)                                     [converged]
  Term symbol:  11 (1) A                                    R^2 =  8.36050e-07
  Excitation energy:                                              12.644689 eV
  Excitation energy:                                               0.316263 eV
  Excitation energy:                                               0.434262 eV
  Excitation energy:                                               0.117999 eV
  Excitation energy:                                               1.096471 eV
  Excitation energy:                                               0.780208 eV
  Excitation energy:                                               0.662209 eV
  Excitation energy:                                               1.475228 eV
  Excitation energy:                                               1.158965 eV
  Excitation energy:                                               1.040967 eV
  Excitation energy:                                               0.378757 eV
  Excitation energy:                                               1.798912 eV
  Excitation energy:                                               1.482649 eV
  Excitation energy:                                               1.364650 eV
  Excitation energy:                                               0.702441 eV
  Excitation energy:                                               0.323684 eV
  Excitation energy:                                               2.819131 eV
  Excitation energy:                                               2.502868 eV
  Excitation energy:                                               2.384869 eV
  Excitation energy:                                               1.722660 eV
  Excitation energy:                                               1.343903 eV
  Excitation energy:                                               1.020219 eV
  Excitation energy:                                               3.428135 eV
  Excitation energy:                                               3.111872 eV
  Excitation energy:                                               2.993874 eV
  Excitation energy:                                               2.331664 eV
  Excitation energy:                                               1.952907 eV
  Excitation energy:                                               1.629223 eV
  Excitation energy:                                               0.609005 eV
  Excitation energy:                                               3.679928 eV
  Excitation energy:                                               3.363665 eV
  Excitation energy:                                               3.245666 eV
  Excitation energy:                                               2.583457 eV
  Excitation energy:                                               2.204699 eV
  Excitation energy:                                               1.881016 eV
  Excitation energy:                                               0.860797 eV
  Excitation energy:                                               0.251792 eV
  Excitation energy:                                               3.907863 eV
  Excitation energy:                                               3.591600 eV
  Excitation energy:                                               3.473601 eV
  Excitation energy:                                               2.811392 eV
  Excitation energy:                                               2.432635 eV
  Excitation energy:                                               2.108951 eV
  Excitation energy:                                               1.088732 eV
  Excitation energy:                                               0.479727 eV
  Excitation energy:                                               0.227935 eV

                    Orbital Energies (a.u.)
 --------------------------------------------------------------

 Alpha MOs
 -- Occupied --
-11.2351 -11.2334  -1.0323  -0.7898  -0.6411  -0.5819  -0.5046  -0.3740

          Ground-State Mulliken Net Atomic Charges

     Atom                 Charge (a.u.)
  ----------------------------------------
      1 H                     0.048164
      2 C                    -0.095060
      3 H                     0.047631
      4 C                    -0.095641
      5 H                     0.047325
      6 H                     0.047582
  ----------------------------------------
  Sum of atomic charges =     0.000000

                    Cartesian Multipole Moments
 -----------------------------------------------------------------
    Charge (ESU x 10^10)
                -0.0000
    Dipole Moment (Debye)
         X      -0.0025      Y       0.0003      Z       0.0150
       Tot       0.0153
    Quadrupole Moments (Debye-Ang)
        XX     -12.2077     XY      -0.0561     YY     -12.2724
        XZ       0.1251     YZ       0.1981     ZZ     -15.5409

 Total job time:  70.39s(wall), 198.01s(cpu)
        *  Thank you very much for using Q-Chem.  Have a nice day.  *
