 Q-Chem 5.4 (devel), Q-Chem, Inc., Pleasanton, CA (2021)
 Q-Chem 5.4.1 for Intel X86 EM64T Linux

User input:
--------------------------------------------------------------
$comment
generated from CCJob.Templates
$end

$rem
sym_ignore = true
method = adc(2)
ee_states = 10
basis = cc-pVDZ
mem_static = 1024
mem_total = 40000
adc_davidson_maxiter = 900
adc_davidson_conv = 6
adc_print = 3
adc_prop_es = true
adc_prop_es2es = true
adc_prop_tpa = true
molden_format = True
state_analysis = true
print_orbitals = 15
gen_scfman = false
fde_export_density = true
fde_details = 3
$end

$molecule
0 1
H -0.0348278765 -0.2442097827 0.0636489606
C -1.0765972949 -0.5342748755 -0.0023551776
H -1.313264467 -1.5767591607 -0.0757276926
C -2.043634118 0.3926884087 0.0061254933
H -1.8137616575 1.4459188338 0.0804456828
H -3.085977293 0.114931858 -0.0593381042
$end
--------------------------------------------------------------

             Standard Nuclear Orientation (Angstroms)
    I     Atom           X                Y                Z
 ----------------------------------------------------------------
    1      H      -0.0348278765    -0.2442097827     0.0636489606
    2      C      -1.0765972949    -0.5342748755    -0.0023551776
    3      H      -1.3132644670    -1.5767591607    -0.0757276926
    4      C      -2.0436341180     0.3926884087     0.0061254933
    5      H      -1.8137616575     1.4459188338     0.0804456828
    6      H      -3.0859772930     0.1149318580    -0.0593381042
 ----------------------------------------------------------------

   11     -78.0395510045      8.18E-09 Convergence criterion met
 Total energy in the final basis set = -78.03955100
  Excited state 1 (singlet, A)                                     [converged]
  Term symbol:  2 (1) A                                     R^2 =  1.37214e-13
  Excitation energy:                                               8.677335 eV
  Excited state 2 (singlet, A)                                     [converged]
  Term symbol:  3 (1) A                                     R^2 =  1.13321e-13
  Excitation energy:                                               9.056997 eV
  Excited state 3 (singlet, A)                                     [converged]
  Term symbol:  4 (1) A                                     R^2 =  2.02847e-13
  Excitation energy:                                               9.141569 eV
  Excited state 4 (singlet, A)                                     [converged]
  Term symbol:  5 (1) A                                     R^2 =  1.59385e-13
  Excitation energy:                                               9.830706 eV
  Excited state 5 (singlet, A)                                     [converged]
  Term symbol:  6 (1) A                                     R^2 =  1.32451e-13
  Excitation energy:                                              10.163330 eV
  Excited state 6 (singlet, A)                                     [converged]
  Term symbol:  7 (1) A                                     R^2 =  5.30595e-13
  Excitation energy:                                              10.484671 eV
  Excited state 7 (singlet, A)                                     [converged]
  Term symbol:  8 (1) A                                     R^2 =  1.15678e-11
  Excitation energy:                                              11.596606 eV
  Excited state 8 (singlet, A)                                     [converged]
  Term symbol:  9 (1) A                                     R^2 =  2.45548e-11
  Excitation energy:                                              12.129718 eV
  Excited state 9 (singlet, A)                                     [converged]
  Term symbol:  10 (1) A                                    R^2 =  2.60854e-10
  Excitation energy:                                              12.381043 eV
  Excited state 10 (singlet, A)                                     [converged]
  Term symbol:  11 (1) A                                    R^2 =  6.06296e-07
  Excitation energy:                                              12.704584 eV
  Excitation energy:                                               0.379662 eV
  Excitation energy:                                               0.464234 eV
  Excitation energy:                                               0.084572 eV
  Excitation energy:                                               1.153371 eV
  Excitation energy:                                               0.773710 eV
  Excitation energy:                                               0.689137 eV
  Excitation energy:                                               1.485994 eV
  Excitation energy:                                               1.106333 eV
  Excitation energy:                                               1.021760 eV
  Excitation energy:                                               0.332623 eV
  Excitation energy:                                               1.807336 eV
  Excitation energy:                                               1.427674 eV
  Excitation energy:                                               1.343102 eV
  Excitation energy:                                               0.653965 eV
  Excitation energy:                                               0.321341 eV
  Excitation energy:                                               2.919271 eV
  Excitation energy:                                               2.539609 eV
  Excitation energy:                                               2.455037 eV
  Excitation energy:                                               1.765900 eV
  Excitation energy:                                               1.433276 eV
  Excitation energy:                                               1.111935 eV
  Excitation energy:                                               3.452383 eV
  Excitation energy:                                               3.072721 eV
  Excitation energy:                                               2.988149 eV
  Excitation energy:                                               2.299011 eV
  Excitation energy:                                               1.966388 eV
  Excitation energy:                                               1.645047 eV
  Excitation energy:                                               0.533112 eV
  Excitation energy:                                               3.703707 eV
  Excitation energy:                                               3.324046 eV
  Excitation energy:                                               3.239473 eV
  Excitation energy:                                               2.550336 eV
  Excitation energy:                                               2.217713 eV
  Excitation energy:                                               1.896371 eV
  Excitation energy:                                               0.784437 eV
  Excitation energy:                                               0.251325 eV
  Excitation energy:                                               4.027249 eV
  Excitation energy:                                               3.647587 eV
  Excitation energy:                                               3.563015 eV
  Excitation energy:                                               2.873878 eV
  Excitation energy:                                               2.541255 eV
  Excitation energy:                                               2.219913 eV
  Excitation energy:                                               1.107978 eV
  Excitation energy:                                               0.574866 eV
  Excitation energy:                                               0.323542 eV

                    Orbital Energies (a.u.)
 --------------------------------------------------------------

 Alpha MOs
 -- Occupied --
-11.2358 -11.2341  -1.0306  -0.7909  -0.6415  -0.5803  -0.5066  -0.3723

          Ground-State Mulliken Net Atomic Charges

     Atom                 Charge (a.u.)
  ----------------------------------------
      1 H                     0.048970
      2 C                    -0.092353
      3 H                     0.046294
      4 C                    -0.098635
      5 H                     0.047965
      6 H                     0.047758
  ----------------------------------------
  Sum of atomic charges =     0.000000

                    Cartesian Multipole Moments
 -----------------------------------------------------------------
    Charge (ESU x 10^10)
                 0.0000
    Dipole Moment (Debye)
         X      -0.0051      Y      -0.0005      Z       0.0001
       Tot       0.0052
    Quadrupole Moments (Debye-Ang)
        XX     -12.2292     XY      -0.0499     YY     -12.2303
        XZ       0.1540     YZ       0.1973     ZZ     -15.5595

 Total job time:  76.78s(wall), 196.53s(cpu)
        *  Thank you very much for using Q-Chem.  Have a nice day.  *
