 Q-Chem 5.4 (devel), Q-Chem, Inc., Pleasanton, CA (2021)
 Q-Chem 5.4.1 for Intel X86 EM64T Linux

User input:
--------------------------------------------------------------
$comment
generated from CCJob.Templates
$end

$rem
sym_ignore = true
method = adc(2)
ee_states = 10
basis = cc-pVDZ
mem_static = 1024
mem_total = 40000
adc_davidson_maxiter = 900
adc_davidson_conv = 6
adc_print = 3
adc_prop_es = true
adc_prop_es2es = true
adc_prop_tpa = true
molden_format = True
state_analysis = true
print_orbitals = 15
gen_scfman = false
fde_export_density = true
fde_details = 3
$end

$molecule
0 1
H -0.0348278765 -0.2442097827 0.0636489606
C -1.0765972949 -0.5242748755 -0.0123551776
H -1.313264467 -1.5767591607 -0.0757276926
C -2.043634118 0.3926884087 0.0061254933
H -1.8137616575 1.4459188338 0.0804456828
H -3.085977293 0.114931858 -0.0593381042
$end
--------------------------------------------------------------

             Standard Nuclear Orientation (Angstroms)
    I     Atom           X                Y                Z
 ----------------------------------------------------------------
    1      H      -0.0348278765    -0.2442097827     0.0636489606
    2      C      -1.0765972949    -0.5242748755    -0.0123551776
    3      H      -1.3132644670    -1.5767591607    -0.0757276926
    4      C      -2.0436341180     0.3926884087     0.0061254933
    5      H      -1.8137616575     1.4459188338     0.0804456828
    6      H      -3.0859772930     0.1149318580    -0.0593381042
 ----------------------------------------------------------------

   11     -78.0399023753      3.67E-09 Convergence criterion met
 Total energy in the final basis set = -78.03990238
  Excited state 1 (singlet, A)                                     [converged]
  Term symbol:  2 (1) A                                     R^2 =  7.13926e-14
  Excitation energy:                                               8.735757 eV
  Excited state 2 (singlet, A)                                     [converged]
  Term symbol:  3 (1) A                                     R^2 =  7.20112e-14
  Excitation energy:                                               9.053620 eV
  Excited state 3 (singlet, A)                                     [converged]
  Term symbol:  4 (1) A                                     R^2 =  1.21463e-13
  Excitation energy:                                               9.170526 eV
  Excited state 4 (singlet, A)                                     [converged]
  Term symbol:  5 (1) A                                     R^2 =  1.65842e-13
  Excitation energy:                                               9.833249 eV
  Excited state 5 (singlet, A)                                     [converged]
  Term symbol:  6 (1) A                                     R^2 =  3.94571e-13
  Excitation energy:                                              10.211060 eV
  Excited state 6 (singlet, A)                                     [converged]
  Term symbol:  7 (1) A                                     R^2 =  7.82893e-13
  Excitation energy:                                              10.534637 eV
  Excited state 7 (singlet, A)                                     [converged]
  Term symbol:  8 (1) A                                     R^2 =  5.17523e-11
  Excitation energy:                                              11.557024 eV
  Excited state 8 (singlet, A)                                     [converged]
  Term symbol:  9 (1) A                                     R^2 =  1.44011e-09
  Excitation energy:                                              12.164401 eV
  Excited state 9 (singlet, A)                                     [converged]
  Term symbol:  10 (1) A                                    R^2 =  2.75512e-08
  Excitation energy:                                              12.416189 eV
  Excited state 10 (singlet, A)                                     [converged]
  Term symbol:  11 (1) A                                    R^2 =  5.77721e-07
  Excitation energy:                                              12.646082 eV
  Excitation energy:                                               0.317863 eV
  Excitation energy:                                               0.434769 eV
  Excitation energy:                                               0.116907 eV
  Excitation energy:                                               1.097492 eV
  Excitation energy:                                               0.779629 eV
  Excitation energy:                                               0.662722 eV
  Excitation energy:                                               1.475303 eV
  Excitation energy:                                               1.157440 eV
  Excitation energy:                                               1.040534 eV
  Excitation energy:                                               0.377811 eV
  Excitation energy:                                               1.798880 eV
  Excitation energy:                                               1.481017 eV
  Excitation energy:                                               1.364111 eV
  Excitation energy:                                               0.701388 eV
  Excitation energy:                                               0.323577 eV
  Excitation energy:                                               2.821267 eV
  Excitation energy:                                               2.503404 eV
  Excitation energy:                                               2.386497 eV
  Excitation energy:                                               1.723775 eV
  Excitation energy:                                               1.345964 eV
  Excitation energy:                                               1.022386 eV
  Excitation energy:                                               3.428644 eV
  Excitation energy:                                               3.110782 eV
  Excitation energy:                                               2.993875 eV
  Excitation energy:                                               2.331153 eV
  Excitation energy:                                               1.953342 eV
  Excitation energy:                                               1.629764 eV
  Excitation energy:                                               0.607378 eV
  Excitation energy:                                               3.680432 eV
  Excitation energy:                                               3.362570 eV
  Excitation energy:                                               3.245663 eV
  Excitation energy:                                               2.582941 eV
  Excitation energy:                                               2.205129 eV
  Excitation energy:                                               1.881552 eV
  Excitation energy:                                               0.859166 eV
  Excitation energy:                                               0.251788 eV
  Excitation energy:                                               3.910324 eV
  Excitation energy:                                               3.592462 eV
  Excitation energy:                                               3.475555 eV
  Excitation energy:                                               2.812833 eV
  Excitation energy:                                               2.435022 eV
  Excitation energy:                                               2.111444 eV
  Excitation energy:                                               1.089058 eV
  Excitation energy:                                               0.481680 eV
  Excitation energy:                                               0.229892 eV

                    Orbital Energies (a.u.)
 --------------------------------------------------------------

 Alpha MOs
 -- Occupied --
-11.2351 -11.2335  -1.0323  -0.7898  -0.6411  -0.5819  -0.5046  -0.3740

          Ground-State Mulliken Net Atomic Charges

     Atom                 Charge (a.u.)
  ----------------------------------------
      1 H                     0.048250
      2 C                    -0.095204
      3 H                     0.047572
      4 C                    -0.095501
      5 H                     0.047242
      6 H                     0.047642
  ----------------------------------------
  Sum of atomic charges =     0.000000

                    Cartesian Multipole Moments
 -----------------------------------------------------------------
    Charge (ESU x 10^10)
                 0.0000
    Dipole Moment (Debye)
         X      -0.0031      Y       0.0008      Z       0.0151
       Tot       0.0154
    Quadrupole Moments (Debye-Ang)
        XX     -12.2136     XY      -0.0573     YY     -12.2642
        XZ       0.1370     YZ       0.1868     ZZ     -15.5415

 Total job time:  112.61s(wall), 356.31s(cpu)
        *  Thank you very much for using Q-Chem.  Have a nice day.  *
