 Q-Chem 5.4 (devel), Q-Chem, Inc., Pleasanton, CA (2021)
 Q-Chem 5.4.1 for Intel X86 EM64T Linux

User input:
--------------------------------------------------------------
$comment
generated from CCJob.Templates
$end

$rem
sym_ignore = true
method = adc(2)
ee_states = 10
basis = cc-pVDZ
mem_static = 1024
mem_total = 40000
adc_davidson_maxiter = 900
adc_davidson_conv = 6
adc_print = 3
adc_prop_es = true
adc_prop_es2es = true
adc_prop_tpa = true
molden_format = True
state_analysis = true
print_orbitals = 15
gen_scfman = false
fde_export_density = true
fde_details = 3
$end

$molecule
0 1
H -0.0348278765 -0.20420978269999998 0.0636489606
C -1.0765972949 -0.5242748755 -0.0023551776
H -1.313264467 -1.5767591607 -0.0757276926
C -2.043634118 0.3926884087 0.0061254933
H -1.8137616575 1.4459188338 0.0804456828
H -3.085977293 0.114931858 -0.0593381042
$end
--------------------------------------------------------------

             Standard Nuclear Orientation (Angstroms)
    I     Atom           X                Y                Z
 ----------------------------------------------------------------
    1      H      -0.0348278765    -0.2042097827     0.0636489606
    2      C      -1.0765972949    -0.5242748755    -0.0023551776
    3      H      -1.3132644670    -1.5767591607    -0.0757276926
    4      C      -2.0436341180     0.3926884087     0.0061254933
    5      H      -1.8137616575     1.4459188338     0.0804456828
    6      H      -3.0859772930     0.1149318580    -0.0593381042
 ----------------------------------------------------------------

   11     -78.0396475666      7.48E-09 Convergence criterion met
 Total energy in the final basis set = -78.03964757
  Excited state 1 (singlet, A)                                     [converged]
  Term symbol:  2 (1) A                                     R^2 =  3.77511e-13
  Excitation energy:                                               8.740089 eV
  Excited state 2 (singlet, A)                                     [converged]
  Term symbol:  3 (1) A                                     R^2 =  5.02471e-13
  Excitation energy:                                               9.068383 eV
  Excited state 3 (singlet, A)                                     [converged]
  Term symbol:  4 (1) A                                     R^2 =  6.11074e-13
  Excitation energy:                                               9.132453 eV
  Excited state 4 (singlet, A)                                     [converged]
  Term symbol:  5 (1) A                                     R^2 =  2.90132e-13
  Excitation energy:                                               9.818621 eV
  Excited state 5 (singlet, A)                                     [converged]
  Term symbol:  6 (1) A                                     R^2 =  5.07618e-13
  Excitation energy:                                              10.181459 eV
  Excited state 6 (singlet, A)                                     [converged]
  Term symbol:  7 (1) A                                     R^2 =  3.78115e-13
  Excitation energy:                                              10.512650 eV
  Excited state 7 (singlet, A)                                     [converged]
  Term symbol:  8 (1) A                                     R^2 =  4.77931e-11
  Excitation energy:                                              11.531293 eV
  Excited state 8 (singlet, A)                                     [converged]
  Term symbol:  9 (1) A                                     R^2 =  1.07696e-10
  Excitation energy:                                              12.179827 eV
  Excited state 9 (singlet, A)                                     [converged]
  Term symbol:  10 (1) A                                    R^2 =  2.28552e-09
  Excitation energy:                                              12.432887 eV
  Excited state 10 (singlet, A)                                     [converged]
  Term symbol:  11 (1) A                                    R^2 =  9.69127e-07
  Excitation energy:                                              12.634325 eV
  Excitation energy:                                               0.328294 eV
  Excitation energy:                                               0.392364 eV
  Excitation energy:                                               0.064070 eV
  Excitation energy:                                               1.078532 eV
  Excitation energy:                                               0.750238 eV
  Excitation energy:                                               0.686168 eV
  Excitation energy:                                               1.441370 eV
  Excitation energy:                                               1.113076 eV
  Excitation energy:                                               1.049006 eV
  Excitation energy:                                               0.362838 eV
  Excitation energy:                                               1.772561 eV
  Excitation energy:                                               1.444266 eV
  Excitation energy:                                               1.380196 eV
  Excitation energy:                                               0.694029 eV
  Excitation energy:                                               0.331191 eV
  Excitation energy:                                               2.791204 eV
  Excitation energy:                                               2.462910 eV
  Excitation energy:                                               2.398840 eV
  Excitation energy:                                               1.712672 eV
  Excitation energy:                                               1.349834 eV
  Excitation energy:                                               1.018644 eV
  Excitation energy:                                               3.439738 eV
  Excitation energy:                                               3.111444 eV
  Excitation energy:                                               3.047374 eV
  Excitation energy:                                               2.361206 eV
  Excitation energy:                                               1.998369 eV
  Excitation energy:                                               1.667178 eV
  Excitation energy:                                               0.648534 eV
  Excitation energy:                                               3.692798 eV
  Excitation energy:                                               3.364504 eV
  Excitation energy:                                               3.300434 eV
  Excitation energy:                                               2.614266 eV
  Excitation energy:                                               2.251429 eV
  Excitation energy:                                               1.920238 eV
  Excitation energy:                                               0.901594 eV
  Excitation energy:                                               0.253060 eV
  Excitation energy:                                               3.894236 eV
  Excitation energy:                                               3.565942 eV
  Excitation energy:                                               3.501872 eV
  Excitation energy:                                               2.815704 eV
  Excitation energy:                                               2.452866 eV
  Excitation energy:                                               2.121676 eV
  Excitation energy:                                               1.103032 eV
  Excitation energy:                                               0.454498 eV
  Excitation energy:                                               0.201438 eV

                    Orbital Energies (a.u.)
 --------------------------------------------------------------

 Alpha MOs
 -- Occupied --
-11.2357 -11.2334  -1.0323  -0.7874  -0.6422  -0.5790  -0.5048  -0.3740

          Ground-State Mulliken Net Atomic Charges

     Atom                 Charge (a.u.)
  ----------------------------------------
      1 H                     0.051094
      2 C                    -0.098892
      3 H                     0.049572
      4 C                    -0.095409
      5 H                     0.046781
      6 H                     0.046854
  ----------------------------------------
  Sum of atomic charges =     0.000000

                    Cartesian Multipole Moments
 -----------------------------------------------------------------
    Charge (ESU x 10^10)
                -0.0000
    Dipole Moment (Debye)
         X      -0.0133      Y       0.0088      Z      -0.0006
       Tot       0.0160
    Quadrupole Moments (Debye-Ang)
        XX     -12.2384     XY       0.0017     YY     -12.2410
        XZ       0.1545     YZ       0.1993     ZZ     -15.5570

 Total job time:  73.54s(wall), 236.34s(cpu)
        *  Thank you very much for using Q-Chem.  Have a nice day.  *
