 Q-Chem 5.4 (devel), Q-Chem, Inc., Pleasanton, CA (2021)
 Q-Chem 5.4.1 for Intel X86 EM64T Linux

User input:
--------------------------------------------------------------
$comment
generated from CCJob.Templates
$end

$rem
sym_ignore = true
method = adc(2)
ee_states = 10
basis = cc-pVDZ
mem_static = 1024
mem_total = 40000
adc_davidson_maxiter = 900
adc_davidson_conv = 6
adc_print = 3
adc_prop_es = true
adc_prop_es2es = true
adc_prop_tpa = true
molden_format = True
state_analysis = true
print_orbitals = 15
gen_scfman = false
fde_export_density = true
fde_details = 3
$end

$molecule
0 1
H -0.0748278765 -0.2442097827 0.0636489606
C -1.0765972949 -0.5242748755 -0.0023551776
H -1.313264467 -1.5767591607 -0.0757276926
C -2.043634118 0.3926884087 0.0061254933
H -1.8137616575 1.4459188338 0.0804456828
H -3.085977293 0.114931858 -0.0593381042
$end
--------------------------------------------------------------

             Standard Nuclear Orientation (Angstroms)
    I     Atom           X                Y                Z
 ----------------------------------------------------------------
    1      H      -0.0748278765    -0.2442097827     0.0636489606
    2      C      -1.0765972949    -0.5242748755    -0.0023551776
    3      H      -1.3132644670    -1.5767591607    -0.0757276926
    4      C      -2.0436341180     0.3926884087     0.0061254933
    5      H      -1.8137616575     1.4459188338     0.0804456828
    6      H      -3.0859772930     0.1149318580    -0.0593381042
 ----------------------------------------------------------------

   11     -78.0386102529      6.28E-09 Convergence criterion met
 Total energy in the final basis set = -78.03861025
  Excited state 1 (singlet, A)                                     [converged]
  Term symbol:  2 (1) A                                     R^2 =  1.01114e-13
  Excitation energy:                                               8.735591 eV
  Excited state 2 (singlet, A)                                     [converged]
  Term symbol:  3 (1) A                                     R^2 =  1.18609e-13
  Excitation energy:                                               9.108509 eV
  Excited state 3 (singlet, A)                                     [converged]
  Term symbol:  4 (1) A                                     R^2 =  2.34539e-13
  Excitation energy:                                               9.197083 eV
  Excited state 4 (singlet, A)                                     [converged]
  Term symbol:  5 (1) A                                     R^2 =  2.68982e-13
  Excitation energy:                                               9.891821 eV
  Excited state 5 (singlet, A)                                     [converged]
  Term symbol:  6 (1) A                                     R^2 =  4.63990e-13
  Excitation energy:                                              10.243902 eV
  Excited state 6 (singlet, A)                                     [converged]
  Term symbol:  7 (1) A                                     R^2 =  5.74452e-13
  Excitation energy:                                              10.561371 eV
  Excited state 7 (singlet, A)                                     [converged]
  Term symbol:  8 (1) A                                     R^2 =  9.92496e-11
  Excitation energy:                                              11.639752 eV
  Excited state 8 (singlet, A)                                     [converged]
  Term symbol:  9 (1) A                                     R^2 =  2.23035e-12
  Excitation energy:                                              12.211867 eV
  Excited state 9 (singlet, A)                                     [converged]
  Term symbol:  10 (1) A                                    R^2 =  2.91572e-11
  Excitation energy:                                              12.461957 eV
  Excited state 10 (singlet, A)                                     [converged]
  Term symbol:  11 (1) A                                    R^2 =  5.32416e-07
  Excitation energy:                                              12.745259 eV
  Excitation energy:                                               0.372918 eV
  Excitation energy:                                               0.461492 eV
  Excitation energy:                                               0.088574 eV
  Excitation energy:                                               1.156230 eV
  Excitation energy:                                               0.783312 eV
  Excitation energy:                                               0.694738 eV
  Excitation energy:                                               1.508311 eV
  Excitation energy:                                               1.135393 eV
  Excitation energy:                                               1.046819 eV
  Excitation energy:                                               0.352081 eV
  Excitation energy:                                               1.825780 eV
  Excitation energy:                                               1.452862 eV
  Excitation energy:                                               1.364288 eV
  Excitation energy:                                               0.669550 eV
  Excitation energy:                                               0.317469 eV
  Excitation energy:                                               2.904161 eV
  Excitation energy:                                               2.531242 eV
  Excitation energy:                                               2.442669 eV
  Excitation energy:                                               1.747930 eV
  Excitation energy:                                               1.395849 eV
  Excitation energy:                                               1.078381 eV
  Excitation energy:                                               3.476276 eV
  Excitation energy:                                               3.103358 eV
  Excitation energy:                                               3.014784 eV
  Excitation energy:                                               2.320046 eV
  Excitation energy:                                               1.967965 eV
  Excitation energy:                                               1.650496 eV
  Excitation energy:                                               0.572115 eV
  Excitation energy:                                               3.726367 eV
  Excitation energy:                                               3.353448 eV
  Excitation energy:                                               3.264875 eV
  Excitation energy:                                               2.570136 eV
  Excitation energy:                                               2.218055 eV
  Excitation energy:                                               1.900586 eV
  Excitation energy:                                               0.822206 eV
  Excitation energy:                                               0.250090 eV
  Excitation energy:                                               4.009668 eV
  Excitation energy:                                               3.636749 eV
  Excitation energy:                                               3.548176 eV
  Excitation energy:                                               2.853437 eV
  Excitation energy:                                               2.501356 eV
  Excitation energy:                                               2.183888 eV
  Excitation energy:                                               1.105507 eV
  Excitation energy:                                               0.533392 eV
  Excitation energy:                                               0.283301 eV

                    Orbital Energies (a.u.)
 --------------------------------------------------------------

 Alpha MOs
 -- Occupied --
-11.2339 -11.2298  -1.0339  -0.7935  -0.6449  -0.5825  -0.5077  -0.3737

          Ground-State Mulliken Net Atomic Charges

     Atom                 Charge (a.u.)
  ----------------------------------------
      1 H                     0.035609
      2 C                    -0.073601
      3 H                     0.046511
      4 C                    -0.102078
      5 H                     0.046631
      6 H                     0.046927
  ----------------------------------------
  Sum of atomic charges =     0.000000

                    Cartesian Multipole Moments
 -----------------------------------------------------------------
    Charge (ESU x 10^10)
                -0.0000
    Dipole Moment (Debye)
         X       0.0129      Y       0.0050      Z       0.0034
       Tot       0.0142
    Quadrupole Moments (Debye-Ang)
        XX     -12.2611     XY      -0.0600     YY     -12.2442
        XZ       0.1495     YZ       0.1920     ZZ     -15.4924

 Total job time:  84.80s(wall), 239.85s(cpu)
        *  Thank you very much for using Q-Chem.  Have a nice day.  *
