 Q-Chem 5.4 (devel), Q-Chem, Inc., Pleasanton, CA (2021)
 Q-Chem 5.4.1 for Intel X86 EM64T Linux

User input:
--------------------------------------------------------------
$comment
generated from CCJob.Templates
$end

$rem
sym_ignore = true
method = adc(2)
ee_states = 10
basis = cc-pVDZ
mem_static = 1024
mem_total = 30000
adc_davidson_maxiter = 900
adc_davidson_conv = 6
adc_print = 3
adc_prop_es = true
adc_prop_es2es = true
adc_prop_tpa = true
molden_format = True
state_analysis = true
print_orbitals = 15
gen_scfman = false
fde_export_density = true
fde_details = 3
$end

$molecule
0 1
H -0.0348278765 -0.2442097827 0.0636489606
C -1.0765972949 -0.5192748755 -0.0023551776
H -1.313264467 -1.5767591607 -0.0757276926
C -2.043634118 0.3926884087 0.0061254933
H -1.8137616575 1.4459188338 0.0804456828
H -3.085977293 0.114931858 -0.0593381042
$end
--------------------------------------------------------------

             Standard Nuclear Orientation (Angstroms)
    I     Atom           X                Y                Z
 ----------------------------------------------------------------
    1      H      -0.0348278765    -0.2442097827     0.0636489606
    2      C      -1.0765972949    -0.5192748755    -0.0023551776
    3      H      -1.3132644670    -1.5767591607    -0.0757276926
    4      C      -2.0436341180     0.3926884087     0.0061254933
    5      H      -1.8137616575     1.4459188338     0.0804456828
    6      H      -3.0859772930     0.1149318580    -0.0593381042
 ----------------------------------------------------------------

   11     -78.0400039037      7.03E-09 Convergence criterion met
 Total energy in the final basis set = -78.04000390
  Excited state 1 (singlet, A)                                     [converged]
  Term symbol:  2 (1) A                                     R^2 =  2.72523e-13
  Excitation energy:                                               8.767097 eV
  Excited state 2 (singlet, A)                                     [converged]
  Term symbol:  3 (1) A                                     R^2 =  7.78735e-14
  Excitation energy:                                               9.051415 eV
  Excited state 3 (singlet, A)                                     [converged]
  Term symbol:  4 (1) A                                     R^2 =  9.23345e-14
  Excitation energy:                                               9.185202 eV
  Excited state 4 (singlet, A)                                     [converged]
  Term symbol:  5 (1) A                                     R^2 =  2.22417e-13
  Excitation energy:                                               9.834757 eV
  Excited state 5 (singlet, A)                                     [converged]
  Term symbol:  6 (1) A                                     R^2 =  1.02464e-13
  Excitation energy:                                              10.235373 eV
  Excited state 6 (singlet, A)                                     [converged]
  Term symbol:  7 (1) A                                     R^2 =  8.06361e-14
  Excitation energy:                                              10.563780 eV
  Excited state 7 (singlet, A)                                     [converged]
  Term symbol:  8 (1) A                                     R^2 =  7.61731e-11
  Excitation energy:                                              11.535533 eV
  Excited state 8 (singlet, A)                                     [converged]
  Term symbol:  9 (1) A                                     R^2 =  7.86502e-12
  Excitation energy:                                              12.183210 eV
  Excited state 9 (singlet, A)                                     [converged]
  Term symbol:  10 (1) A                                    R^2 =  1.56928e-10
  Excitation energy:                                              12.435115 eV
  Excited state 10 (singlet, A)                                     [converged]
  Term symbol:  11 (1) A                                    R^2 =  9.36210e-07
  Excitation energy:                                              12.614729 eV
  Excitation energy:                                               0.284319 eV
  Excitation energy:                                               0.418106 eV
  Excitation energy:                                               0.133787 eV
  Excitation energy:                                               1.067660 eV
  Excitation energy:                                               0.783342 eV
  Excitation energy:                                               0.649555 eV
  Excitation energy:                                               1.468276 eV
  Excitation energy:                                               1.183958 eV
  Excitation energy:                                               1.050171 eV
  Excitation energy:                                               0.400616 eV
  Excitation energy:                                               1.796683 eV
  Excitation energy:                                               1.512365 eV
  Excitation energy:                                               1.378578 eV
  Excitation energy:                                               0.729023 eV
  Excitation energy:                                               0.328407 eV
  Excitation energy:                                               2.768436 eV
  Excitation energy:                                               2.484118 eV
  Excitation energy:                                               2.350331 eV
  Excitation energy:                                               1.700776 eV
  Excitation energy:                                               1.300160 eV
  Excitation energy:                                               0.971753 eV
  Excitation energy:                                               3.416114 eV
  Excitation energy:                                               3.131795 eV
  Excitation energy:                                               2.998008 eV
  Excitation energy:                                               2.348453 eV
  Excitation energy:                                               1.947838 eV
  Excitation energy:                                               1.619430 eV
  Excitation energy:                                               0.647677 eV
  Excitation energy:                                               3.668019 eV
  Excitation energy:                                               3.383700 eV
  Excitation energy:                                               3.249913 eV
  Excitation energy:                                               2.600358 eV
  Excitation energy:                                               2.199743 eV
  Excitation energy:                                               1.871335 eV
  Excitation energy:                                               0.899582 eV
  Excitation energy:                                               0.251905 eV
  Excitation energy:                                               3.847633 eV
  Excitation energy:                                               3.563314 eV
  Excitation energy:                                               3.429527 eV
  Excitation energy:                                               2.779972 eV
  Excitation energy:                                               2.379357 eV
  Excitation energy:                                               2.050949 eV
  Excitation energy:                                               1.079196 eV
  Excitation energy:                                               0.431519 eV
  Excitation energy:                                               0.179614 eV

                    Orbital Energies (a.u.)
 --------------------------------------------------------------

 Alpha MOs
 -- Occupied --
-11.2348 -11.2331  -1.0332  -0.7892  -0.6410  -0.5827  -0.5035  -0.3749

          Ground-State Mulliken Net Atomic Charges

     Atom                 Charge (a.u.)
  ----------------------------------------
      1 H                     0.047714
      2 C                    -0.096467
      3 H                     0.048232
      4 C                    -0.093915
      5 H                     0.046809
      6 H                     0.047628
  ----------------------------------------
  Sum of atomic charges =     0.000000

                    Cartesian Multipole Moments
 -----------------------------------------------------------------
    Charge (ESU x 10^10)
                 0.0000
    Dipole Moment (Debye)
         X      -0.0002      Y       0.0031      Z       0.0017
       Tot       0.0036
    Quadrupole Moments (Debye-Ang)
        XX     -12.2052     XY      -0.0633     YY     -12.2875
        XZ       0.1520     YZ       0.1913     ZZ     -15.5319

 Total job time:  84.68s(wall), 272.29s(cpu)
        *  Thank you very much for using Q-Chem.  Have a nice day.  *
