 Q-Chem 5.4 (devel), Q-Chem, Inc., Pleasanton, CA (2021)
 Q-Chem 5.4.1 for Intel X86 EM64T Linux

User input:
--------------------------------------------------------------
$comment
generated from CCJob.Templates
$end

$rem
sym_ignore = true
method = adc(2)
ee_states = 10
basis = cc-pVDZ
mem_static = 1024
mem_total = 40000
adc_davidson_maxiter = 900
adc_davidson_conv = 6
adc_print = 3
adc_prop_es = true
adc_prop_es2es = true
adc_prop_tpa = true
molden_format = True
state_analysis = true
print_orbitals = 15
gen_scfman = false
fde_export_density = true
fde_details = 3
$end

$molecule
0 1
H -0.021676935558206063 -0.24493138655754085 0.023843638572237848
C -1.0862129841310775 -0.5192442569635789 -0.014154616609096763
H -1.3066291789553024 -1.5927566722916895 -0.05493202581841464
C -2.0500913190859342 0.4016874358780379 0.04161090864747681
H -1.8200326483742904 1.4659652801788163 0.06588596915567468
H -3.1049530738723643 0.11814103484410202 -0.012791923434669152
$end
--------------------------------------------------------------

             Standard Nuclear Orientation (Angstroms)
    I     Atom           X                Y                Z
 ----------------------------------------------------------------
    1      H      -0.0216769356    -0.2449313866     0.0238436386
    2      C      -1.0862129841    -0.5192442570    -0.0141546166
    3      H      -1.3066291790    -1.5927566723    -0.0549320258
    4      C      -2.0500913191     0.4016874359     0.0416109086
    5      H      -1.8200326484     1.4659652802     0.0658859692
    6      H      -3.1049530739     0.1181410348    -0.0127919234
 ----------------------------------------------------------------

   11     -78.0393322928      7.33E-09 Convergence criterion met
 Total energy in the final basis set = -78.03933229
  Excited state 1 (singlet, A)                                     [converged]
  Term symbol:  2 (1) A                                     R^2 =  2.13149e-13
  Excitation energy:                                               8.721048 eV
  Excited state 2 (singlet, A)                                     [converged]
  Term symbol:  3 (1) A                                     R^2 =  9.75404e-13
  Excitation energy:                                               8.940919 eV
  Excited state 3 (singlet, A)                                     [converged]
  Term symbol:  4 (1) A                                     R^2 =  1.08232e-13
  Excitation energy:                                               9.138201 eV
  Excited state 4 (singlet, A)                                     [converged]
  Term symbol:  5 (1) A                                     R^2 =  3.07270e-13
  Excitation energy:                                               9.734960 eV
  Excited state 5 (singlet, A)                                     [converged]
  Term symbol:  6 (1) A                                     R^2 =  1.71770e-12
  Excitation energy:                                              10.149955 eV
  Excited state 6 (singlet, A)                                     [converged]
  Term symbol:  7 (1) A                                     R^2 =  8.50024e-12
  Excitation energy:                                              10.506807 eV
  Excited state 7 (singlet, A)                                     [converged]
  Term symbol:  8 (1) A                                     R^2 =  2.76099e-09
  Excitation energy:                                              11.428328 eV
  Excited state 8 (singlet, A)                                     [converged]
  Term symbol:  9 (1) A                                     R^2 =  1.10785e-07
  Excitation energy:                                              12.057086 eV
  Excited state 9 (singlet, A)                                     [converged]
  Term symbol:  10 (1) A                                    R^2 =  8.53915e-07
  Excitation energy:                                              12.338342 eV
  Excited state 10 (singlet, A)                                     [converged]
  Term symbol:  11 (1) A                                    R^2 =  9.30866e-07
  Excitation energy:                                              12.473016 eV
  Excitation energy:                                               0.219871 eV
  Excitation energy:                                               0.417153 eV
  Excitation energy:                                               0.197282 eV
  Excitation energy:                                               1.013912 eV
  Excitation energy:                                               0.794041 eV
  Excitation energy:                                               0.596759 eV
  Excitation energy:                                               1.428907 eV
  Excitation energy:                                               1.209036 eV
  Excitation energy:                                               1.011754 eV
  Excitation energy:                                               0.414995 eV
  Excitation energy:                                               1.785759 eV
  Excitation energy:                                               1.565888 eV
  Excitation energy:                                               1.368606 eV
  Excitation energy:                                               0.771847 eV
  Excitation energy:                                               0.356852 eV
  Excitation energy:                                               2.707280 eV
  Excitation energy:                                               2.487409 eV
  Excitation energy:                                               2.290126 eV
  Excitation energy:                                               1.693368 eV
  Excitation energy:                                               1.278373 eV
  Excitation energy:                                               0.921520 eV
  Excitation energy:                                               3.336038 eV
  Excitation energy:                                               3.116167 eV
  Excitation energy:                                               2.918885 eV
  Excitation energy:                                               2.322126 eV
  Excitation energy:                                               1.907131 eV
  Excitation energy:                                               1.550279 eV
  Excitation energy:                                               0.628758 eV
  Excitation energy:                                               3.617294 eV
  Excitation energy:                                               3.397423 eV
  Excitation energy:                                               3.200140 eV
  Excitation energy:                                               2.603382 eV
  Excitation energy:                                               2.188387 eV
  Excitation energy:                                               1.831534 eV
  Excitation energy:                                               0.910014 eV
  Excitation energy:                                               0.281256 eV
  Excitation energy:                                               3.751968 eV
  Excitation energy:                                               3.532097 eV
  Excitation energy:                                               3.334815 eV
  Excitation energy:                                               2.738056 eV
  Excitation energy:                                               2.323061 eV
  Excitation energy:                                               1.966209 eV
  Excitation energy:                                               1.044689 eV
  Excitation energy:                                               0.415930 eV
  Excitation energy:                                               0.134675 eV

                    Orbital Energies (a.u.)
 --------------------------------------------------------------

 Alpha MOs
 -- Occupied --
-11.2393 -11.2372  -1.0297  -0.7857  -0.6349  -0.5819  -0.4994  -0.3743

          Ground-State Mulliken Net Atomic Charges

     Atom                 Charge (a.u.)
  ----------------------------------------
      1 H                     0.053257
      2 C                    -0.110519
      3 H                     0.053085
      4 C                    -0.100108
      5 H                     0.051884
      6 H                     0.052401
  ----------------------------------------
  Sum of atomic charges =     0.000000

                    Cartesian Multipole Moments
 -----------------------------------------------------------------
    Charge (ESU x 10^10)
                -0.0000
    Dipole Moment (Debye)
         X       0.0025      Y      -0.0007      Z      -0.0226
       Tot       0.0227
    Quadrupole Moments (Debye-Ang)
        XX     -12.2694     XY      -0.0955     YY     -12.2364
        XZ       0.1093     YZ       0.1238     ZZ     -15.6287

 Total job time:  146.69s(wall), 440.13s(cpu)
        *  Thank you very much for using Q-Chem.  Have a nice day.  *
