 Q-Chem 5.4 (devel), Q-Chem, Inc., Pleasanton, CA (2021)
 Q-Chem 5.4.1 for Intel X86 EM64T Linux

User input:
--------------------------------------------------------------
$comment
generated from CCJob.Templates
$end

$rem
sym_ignore = true
method = adc(2)
ee_states = 10
basis = cc-pVDZ
mem_static = 1024
mem_total = 40000
adc_davidson_maxiter = 900
adc_davidson_conv = 6
adc_print = 3
adc_prop_es = true
adc_prop_es2es = true
adc_prop_tpa = true
molden_format = True
state_analysis = true
print_orbitals = 15
gen_scfman = false
fde_export_density = true
fde_details = 3
$end

$molecule
0 1
H -0.0348278765 -0.2442097827 0.0636489606
C -1.0765972949 -0.5242748755 -0.0023551776
H -1.313264467 -1.6167591607 -0.0757276926
C -2.043634118 0.3926884087 0.0061254933
H -1.8137616575 1.4459188338 0.0804456828
H -3.085977293 0.114931858 -0.0593381042
$end
--------------------------------------------------------------

             Standard Nuclear Orientation (Angstroms)
    I     Atom           X                Y                Z
 ----------------------------------------------------------------
    1      H      -0.0348278765    -0.2442097827     0.0636489606
    2      C      -1.0765972949    -0.5242748755    -0.0023551776
    3      H      -1.3132644670    -1.6167591607    -0.0757276926
    4      C      -2.0436341180     0.3926884087     0.0061254933
    5      H      -1.8137616575     1.4459188338     0.0804456828
    6      H      -3.0859772930     0.1149318580    -0.0593381042
 ----------------------------------------------------------------

   11     -78.0390751919      6.05E-09 Convergence criterion met
 Total energy in the final basis set = -78.03907519
  Excited state 1 (singlet, A)                                     [converged]
  Term symbol:  2 (1) A                                     R^2 =  4.45034e-14
  Excitation energy:                                               8.739206 eV
  Excited state 2 (singlet, A)                                     [converged]
  Term symbol:  3 (1) A                                     R^2 =  3.11677e-13
  Excitation energy:                                               8.991128 eV
  Excited state 3 (singlet, A)                                     [converged]
  Term symbol:  4 (1) A                                     R^2 =  3.52347e-14
  Excitation energy:                                               9.134567 eV
  Excited state 4 (singlet, A)                                     [converged]
  Term symbol:  5 (1) A                                     R^2 =  1.08517e-13
  Excitation energy:                                               9.763976 eV
  Excited state 5 (singlet, A)                                     [converged]
  Term symbol:  6 (1) A                                     R^2 =  9.98727e-14
  Excitation energy:                                              10.180043 eV
  Excited state 6 (singlet, A)                                     [converged]
  Term symbol:  7 (1) A                                     R^2 =  2.77941e-13
  Excitation energy:                                              10.517624 eV
  Excited state 7 (singlet, A)                                     [converged]
  Term symbol:  8 (1) A                                     R^2 =  2.84069e-10
  Excitation energy:                                              11.460992 eV
  Excited state 8 (singlet, A)                                     [converged]
  Term symbol:  9 (1) A                                     R^2 =  9.95003e-10
  Excitation energy:                                              12.116038 eV
  Excited state 9 (singlet, A)                                     [converged]
  Term symbol:  10 (1) A                                    R^2 =  1.15884e-08
  Excitation energy:                                              12.376401 eV
  Excited state 10 (singlet, A)                                     [converged]
  Term symbol:  11 (1) A                                    R^2 =  6.27604e-07
  Excitation energy:                                              12.518868 eV
  Excitation energy:                                               0.251922 eV
  Excitation energy:                                               0.395361 eV
  Excitation energy:                                               0.143439 eV
  Excitation energy:                                               1.024769 eV
  Excitation energy:                                               0.772848 eV
  Excitation energy:                                               0.629409 eV
  Excitation energy:                                               1.440837 eV
  Excitation energy:                                               1.188915 eV
  Excitation energy:                                               1.045476 eV
  Excitation energy:                                               0.416068 eV
  Excitation energy:                                               1.778418 eV
  Excitation energy:                                               1.526496 eV
  Excitation energy:                                               1.383057 eV
  Excitation energy:                                               0.753649 eV
  Excitation energy:                                               0.337581 eV
  Excitation energy:                                               2.721786 eV
  Excitation energy:                                               2.469864 eV
  Excitation energy:                                               2.326425 eV
  Excitation energy:                                               1.697016 eV
  Excitation energy:                                               1.280949 eV
  Excitation energy:                                               0.943368 eV
  Excitation energy:                                               3.376832 eV
  Excitation energy:                                               3.124910 eV
  Excitation energy:                                               2.981471 eV
  Excitation energy:                                               2.352063 eV
  Excitation energy:                                               1.935995 eV
  Excitation energy:                                               1.598414 eV
  Excitation energy:                                               0.655046 eV
  Excitation energy:                                               3.637195 eV
  Excitation energy:                                               3.385273 eV
  Excitation energy:                                               3.241834 eV
  Excitation energy:                                               2.612426 eV
  Excitation energy:                                               2.196358 eV
  Excitation energy:                                               1.858777 eV
  Excitation energy:                                               0.915409 eV
  Excitation energy:                                               0.260363 eV
  Excitation energy:                                               3.779662 eV
  Excitation energy:                                               3.527740 eV
  Excitation energy:                                               3.384301 eV
  Excitation energy:                                               2.754892 eV
  Excitation energy:                                               2.338825 eV
  Excitation energy:                                               2.001243 eV
  Excitation energy:                                               1.057876 eV
  Excitation energy:                                               0.402830 eV
  Excitation energy:                                               0.142467 eV

                    Orbital Energies (a.u.)
 --------------------------------------------------------------

 Alpha MOs
 -- Occupied --
-11.2388 -11.2346  -1.0310  -0.7865  -0.6378  -0.5812  -0.5012  -0.3744

          Ground-State Mulliken Net Atomic Charges

     Atom                 Charge (a.u.)
  ----------------------------------------
      1 H                     0.049502
      2 C                    -0.114065
      3 H                     0.057473
      4 C                    -0.089137
      5 H                     0.047933
      6 H                     0.048293
  ----------------------------------------
  Sum of atomic charges =     0.000000

                    Cartesian Multipole Moments
 -----------------------------------------------------------------
    Charge (ESU x 10^10)
                 0.0000
    Dipole Moment (Debye)
         X       0.0003      Y       0.0217      Z       0.0041
       Tot       0.0220
    Quadrupole Moments (Debye-Ang)
        XX     -12.2398     XY      -0.0911     YY     -12.2762
        XZ       0.1496     YZ       0.1927     ZZ     -15.5899

 Total job time:  75.94s(wall), 232.81s(cpu)
        *  Thank you very much for using Q-Chem.  Have a nice day.  *
