 Q-Chem 5.4 (devel), Q-Chem, Inc., Pleasanton, CA (2021)
 Q-Chem 5.4.1 for Intel X86 EM64T Linux

User input:
--------------------------------------------------------------
$comment
generated from CCJob.Templates
$end

$rem
sym_ignore = true
method = adc(2)
ee_states = 10
basis = cc-pVDZ
mem_static = 1024
mem_total = 30000
adc_davidson_maxiter = 900
adc_davidson_conv = 6
adc_print = 3
adc_prop_es = true
adc_prop_es2es = true
adc_prop_tpa = true
molden_format = True
state_analysis = true
print_orbitals = 15
gen_scfman = false
fde_export_density = true
fde_details = 3
$end

$molecule
0 1
H -0.0348278765 -0.2442097827 0.0636489606
C -1.0765972949 -0.5242748755 -0.0023551776
H -1.313264467 -1.5817591606999999 -0.0757276926
C -2.043634118 0.3926884087 0.0061254933
H -1.8137616575 1.4459188338 0.0804456828
H -3.085977293 0.114931858 -0.0593381042
$end
--------------------------------------------------------------

             Standard Nuclear Orientation (Angstroms)
    I     Atom           X                Y                Z
 ----------------------------------------------------------------
    1      H      -0.0348278765    -0.2442097827     0.0636489606
    2      C      -1.0765972949    -0.5242748755    -0.0023551776
    3      H      -1.3132644670    -1.5817591607    -0.0757276926
    4      C      -2.0436341180     0.3926884087     0.0061254933
    5      H      -1.8137616575     1.4459188338     0.0804456828
    6      H      -3.0859772930     0.1149318580    -0.0593381042
 ----------------------------------------------------------------

   11     -78.0399311625      7.83E-09 Convergence criterion met
 Total energy in the final basis set = -78.03993116
  Excited state 1 (singlet, A)                                     [converged]
  Term symbol:  2 (1) A                                     R^2 =  4.66489e-13
  Excitation energy:                                               8.737371 eV
  Excited state 2 (singlet, A)                                     [converged]
  Term symbol:  3 (1) A                                     R^2 =  3.06320e-13
  Excitation energy:                                               9.047000 eV
  Excited state 3 (singlet, A)                                     [converged]
  Term symbol:  4 (1) A                                     R^2 =  3.74484e-13
  Excitation energy:                                               9.166793 eV
  Excited state 4 (singlet, A)                                     [converged]
  Term symbol:  5 (1) A                                     R^2 =  4.72229e-13
  Excitation energy:                                               9.825397 eV
  Excited state 5 (singlet, A)                                     [converged]
  Term symbol:  6 (1) A                                     R^2 =  2.86345e-13
  Excitation energy:                                              10.207897 eV
  Excited state 6 (singlet, A)                                     [converged]
  Term symbol:  7 (1) A                                     R^2 =  4.41151e-13
  Excitation energy:                                              10.533164 eV
  Excited state 7 (singlet, A)                                     [converged]
  Term symbol:  8 (1) A                                     R^2 =  2.85527e-10
  Excitation energy:                                              11.545547 eV
  Excited state 8 (singlet, A)                                     [converged]
  Term symbol:  9 (1) A                                     R^2 =  4.18356e-11
  Excitation energy:                                              12.159373 eV
  Excited state 9 (singlet, A)                                     [converged]
  Term symbol:  10 (1) A                                    R^2 =  6.43880e-10
  Excitation energy:                                              12.411911 eV
  Excited state 10 (singlet, A)                                     [converged]
  Term symbol:  11 (1) A                                    R^2 =  7.99891e-07
  Excitation energy:                                              12.631462 eV
  Excitation energy:                                               0.309629 eV
  Excitation energy:                                               0.429422 eV
  Excitation energy:                                               0.119792 eV
  Excitation energy:                                               1.088026 eV
  Excitation energy:                                               0.778396 eV
  Excitation energy:                                               0.658604 eV
  Excitation energy:                                               1.470526 eV
  Excitation energy:                                               1.160897 eV
  Excitation energy:                                               1.041104 eV
  Excitation energy:                                               0.382500 eV
  Excitation energy:                                               1.795792 eV
  Excitation energy:                                               1.486163 eV
  Excitation energy:                                               1.366371 eV
  Excitation energy:                                               0.707767 eV
  Excitation energy:                                               0.325267 eV
  Excitation energy:                                               2.808176 eV
  Excitation energy:                                               2.498547 eV
  Excitation energy:                                               2.378755 eV
  Excitation energy:                                               1.720151 eV
  Excitation energy:                                               1.337651 eV
  Excitation energy:                                               1.012384 eV
  Excitation energy:                                               3.422002 eV
  Excitation energy:                                               3.112372 eV
  Excitation energy:                                               2.992580 eV
  Excitation energy:                                               2.333976 eV
  Excitation energy:                                               1.951476 eV
  Excitation energy:                                               1.626209 eV
  Excitation energy:                                               0.613825 eV
  Excitation energy:                                               3.674540 eV
  Excitation energy:                                               3.364911 eV
  Excitation energy:                                               3.245118 eV
  Excitation energy:                                               2.586514 eV
  Excitation energy:                                               2.204014 eV
  Excitation energy:                                               1.878748 eV
  Excitation energy:                                               0.866364 eV
  Excitation energy:                                               0.252539 eV
  Excitation energy:                                               3.894091 eV
  Excitation energy:                                               3.584462 eV
  Excitation energy:                                               3.464669 eV
  Excitation energy:                                               2.806065 eV
  Excitation energy:                                               2.423565 eV
  Excitation energy:                                               2.098298 eV
  Excitation energy:                                               1.085914 eV
  Excitation energy:                                               0.472089 eV
  Excitation energy:                                               0.219551 eV

                    Orbital Energies (a.u.)
 --------------------------------------------------------------

 Alpha MOs
 -- Occupied --
-11.2355 -11.2337  -1.0321  -0.7893  -0.6407  -0.5818  -0.5042  -0.3740

          Ground-State Mulliken Net Atomic Charges

     Atom                 Charge (a.u.)
  ----------------------------------------
      1 H                     0.048286
      2 C                    -0.097634
      3 H                     0.049023
      4 C                    -0.094696
      5 H                     0.047283
      6 H                     0.047738
  ----------------------------------------
  Sum of atomic charges =     0.000000

                    Cartesian Multipole Moments
 -----------------------------------------------------------------
    Charge (ESU x 10^10)
                -0.0000
    Dipole Moment (Debye)
         X      -0.0015      Y       0.0040      Z       0.0015
       Tot       0.0045
    Quadrupole Moments (Debye-Ang)
        XX     -12.2168     XY      -0.0624     YY     -12.2689
        XZ       0.1523     YZ       0.1933     ZZ     -15.5472

 Total job time:  59.69s(wall), 185.48s(cpu)
        *  Thank you very much for using Q-Chem.  Have a nice day.  *
