 Q-Chem 5.4 (devel), Q-Chem, Inc., Pleasanton, CA (2021)
 Q-Chem 5.4.1 for Intel X86 EM64T Linux

User input:
--------------------------------------------------------------
$comment
generated from CCJob.Templates
$end

$rem
sym_ignore = true
method = adc(2)
ee_states = 10
basis = cc-pVDZ
mem_static = 1024
mem_total = 30000
adc_davidson_maxiter = 900
adc_davidson_conv = 6
adc_print = 3
adc_prop_es = true
adc_prop_es2es = true
adc_prop_tpa = true
molden_format = True
state_analysis = true
print_orbitals = 15
gen_scfman = false
fde_export_density = true
fde_details = 3
$end

$molecule
0 1
H -0.0348278765 -0.2442097827 0.0636489606
C -1.0765972949 -0.5242748755 -0.0023551776
H -1.313264467 -1.5767591607 -0.0757276926
C -2.038634118 0.3926884087 0.0061254933
H -1.8137616575 1.4459188338 0.0804456828
H -3.085977293 0.114931858 -0.0593381042
$end
--------------------------------------------------------------

             Standard Nuclear Orientation (Angstroms)
    I     Atom           X                Y                Z
 ----------------------------------------------------------------
    1      H      -0.0348278765    -0.2442097827     0.0636489606
    2      C      -1.0765972949    -0.5242748755    -0.0023551776
    3      H      -1.3132644670    -1.5767591607    -0.0757276926
    4      C      -2.0386341180     0.3926884087     0.0061254933
    5      H      -1.8137616575     1.4459188338     0.0804456828
    6      H      -3.0859772930     0.1149318580    -0.0593381042
 ----------------------------------------------------------------

   11     -78.0400236329      4.38E-09 Convergence criterion met
 Total energy in the final basis set = -78.04002363
  Excited state 1 (singlet, A)                                     [converged]
  Term symbol:  2 (1) A                                     R^2 =  4.18554e-13
  Excitation energy:                                               8.768741 eV
  Excited state 2 (singlet, A)                                     [converged]
  Term symbol:  3 (1) A                                     R^2 =  5.22001e-13
  Excitation energy:                                               9.052823 eV
  Excited state 3 (singlet, A)                                     [converged]
  Term symbol:  4 (1) A                                     R^2 =  5.43770e-13
  Excitation energy:                                               9.186049 eV
  Excited state 4 (singlet, A)                                     [converged]
  Term symbol:  5 (1) A                                     R^2 =  5.75301e-13
  Excitation energy:                                               9.834837 eV
  Excited state 5 (singlet, A)                                     [converged]
  Term symbol:  6 (1) A                                     R^2 =  7.60532e-13
  Excitation energy:                                              10.235799 eV
  Excited state 6 (singlet, A)                                     [converged]
  Term symbol:  7 (1) A                                     R^2 =  9.03839e-13
  Excitation energy:                                              10.564450 eV
  Excited state 7 (singlet, A)                                     [converged]
  Term symbol:  8 (1) A                                     R^2 =  5.42128e-10
  Excitation energy:                                              11.535394 eV
  Excited state 8 (singlet, A)                                     [converged]
  Term symbol:  9 (1) A                                     R^2 =  2.34450e-09
  Excitation energy:                                              12.184509 eV
  Excited state 9 (singlet, A)                                     [converged]
  Term symbol:  10 (1) A                                    R^2 =  2.82959e-08
  Excitation energy:                                              12.436422 eV
  Excited state 10 (singlet, A)                                     [converged]
  Term symbol:  11 (1) A                                    R^2 =  5.29689e-07
  Excitation energy:                                              12.613948 eV
  Excitation energy:                                               0.284082 eV
  Excitation energy:                                               0.417308 eV
  Excitation energy:                                               0.133225 eV
  Excitation energy:                                               1.066096 eV
  Excitation energy:                                               0.782014 eV
  Excitation energy:                                               0.648788 eV
  Excitation energy:                                               1.467058 eV
  Excitation energy:                                               1.182976 eV
  Excitation energy:                                               1.049751 eV
  Excitation energy:                                               0.400962 eV
  Excitation energy:                                               1.795709 eV
  Excitation energy:                                               1.511627 eV
  Excitation energy:                                               1.378402 eV
  Excitation energy:                                               0.729613 eV
  Excitation energy:                                               0.328651 eV
  Excitation energy:                                               2.766653 eV
  Excitation energy:                                               2.482571 eV
  Excitation energy:                                               2.349346 eV
  Excitation energy:                                               1.700557 eV
  Excitation energy:                                               1.299595 eV
  Excitation energy:                                               0.970944 eV
  Excitation energy:                                               3.415768 eV
  Excitation energy:                                               3.131686 eV
  Excitation energy:                                               2.998461 eV
  Excitation energy:                                               2.349672 eV
  Excitation energy:                                               1.948710 eV
  Excitation energy:                                               1.620059 eV
  Excitation energy:                                               0.649115 eV
  Excitation energy:                                               3.667681 eV
  Excitation energy:                                               3.383599 eV
  Excitation energy:                                               3.250373 eV
  Excitation energy:                                               2.601585 eV
  Excitation energy:                                               2.200623 eV
  Excitation energy:                                               1.871972 eV
  Excitation energy:                                               0.901028 eV
  Excitation energy:                                               0.251913 eV
  Excitation energy:                                               3.845207 eV
  Excitation energy:                                               3.561124 eV
  Excitation energy:                                               3.427899 eV
  Excitation energy:                                               2.779111 eV
  Excitation energy:                                               2.378148 eV
  Excitation energy:                                               2.049498 eV
  Excitation energy:                                               1.078553 eV
  Excitation energy:                                               0.429438 eV
  Excitation energy:                                               0.177526 eV

                    Orbital Energies (a.u.)
 --------------------------------------------------------------

 Alpha MOs
 -- Occupied --
-11.2348 -11.2331  -1.0332  -0.7892  -0.6410  -0.5827  -0.5035  -0.3749

          Ground-State Mulliken Net Atomic Charges

     Atom                 Charge (a.u.)
  ----------------------------------------
      1 H                     0.047733
      2 C                    -0.093461
      3 H                     0.047598
      4 C                    -0.096925
      5 H                     0.046818
      6 H                     0.048236
  ----------------------------------------
  Sum of atomic charges =     0.000000

                    Cartesian Multipole Moments
 -----------------------------------------------------------------
    Charge (ESU x 10^10)
                 0.0000
    Dipole Moment (Debye)
         X      -0.0006      Y       0.0034      Z       0.0017
       Tot       0.0038
    Quadrupole Moments (Debye-Ang)
        XX     -12.2355     XY      -0.0654     YY     -12.2562
        XZ       0.1502     YZ       0.1934     ZZ     -15.5313

 Total job time:  60.60s(wall), 195.66s(cpu)
        *  Thank you very much for using Q-Chem.  Have a nice day.  *
