 Q-Chem 5.4 (devel), Q-Chem, Inc., Pleasanton, CA (2021)
 Q-Chem 5.4.1 for Intel X86 EM64T Linux

User input:
--------------------------------------------------------------
$comment
generated from CCJob.Templates
$end

$rem
sym_ignore = true
method = adc(2)
ee_states = 10
basis = cc-pVDZ
mem_static = 1024
mem_total = 40000
adc_davidson_maxiter = 900
adc_davidson_conv = 6
adc_print = 3
adc_prop_es = true
adc_prop_es2es = true
adc_prop_tpa = true
molden_format = True
state_analysis = true
print_orbitals = 15
gen_scfman = false
fde_export_density = true
fde_details = 3
$end

$molecule
0 1
H 0.01597353352820177 -0.23616970903138554 0.0675827445884047
C -1.086203784397201 -0.5165181775892608 -0.002286780422091026
H -1.3101054981202411 -1.6311138611683953 -0.0804148177121872
C -2.053059798394999 0.401750236108792 0.006686759877746711
H -1.830415525318966 1.4243818523385587 0.07920300478804461
H -3.063589405978938 0.1272255922666673 -0.05834670871127076
$end
--------------------------------------------------------------

             Standard Nuclear Orientation (Angstroms)
    I     Atom           X                Y                Z
 ----------------------------------------------------------------
    1      H       0.0159735335    -0.2361697090     0.0675827446
    2      C      -1.0862037844    -0.5165181776    -0.0022867804
    3      H      -1.3101054981    -1.6311138612    -0.0804148177
    4      C      -2.0530597984     0.4017502361     0.0066867599
    5      H      -1.8304155253     1.4243818523     0.0792030048
    6      H      -3.0635894060     0.1272255923    -0.0583467087
 ----------------------------------------------------------------

   11     -78.0342113478      5.60E-09 Convergence criterion met
 Total energy in the final basis set = -78.03421135
  Excited state 1 (singlet, A)                                     [converged]
  Term symbol:  2 (1) A                                     R^2 =  8.66037e-14
  Excitation energy:                                               8.733527 eV
  Excited state 2 (singlet, A)                                     [converged]
  Term symbol:  3 (1) A                                     R^2 =  9.77280e-14
  Excitation energy:                                               8.931636 eV
  Excited state 3 (singlet, A)                                     [converged]
  Term symbol:  4 (1) A                                     R^2 =  8.28090e-14
  Excitation energy:                                               9.098518 eV
  Excited state 4 (singlet, A)                                     [converged]
  Term symbol:  5 (1) A                                     R^2 =  4.13217e-14
  Excitation energy:                                               9.720614 eV
  Excited state 5 (singlet, A)                                     [converged]
  Term symbol:  6 (1) A                                     R^2 =  2.17949e-13
  Excitation energy:                                              10.171507 eV
  Excited state 6 (singlet, A)                                     [converged]
  Term symbol:  7 (1) A                                     R^2 =  5.52725e-13
  Excitation energy:                                              10.517801 eV
  Excited state 7 (singlet, A)                                     [converged]
  Term symbol:  8 (1) A                                     R^2 =  3.21736e-08
  Excitation energy:                                              11.370901 eV
  Excited state 8 (singlet, A)                                     [converged]
  Term symbol:  9 (1) A                                     R^2 =  3.79903e-09
  Excitation energy:                                              12.091724 eV
  Excited state 9 (singlet, A)                                     [converged]
  Term symbol:  10 (1) A                                    R^2 =  3.71941e-08
  Excitation energy:                                              12.352690 eV
  Excited state 10 (singlet, A)                                     [converged]
  Term symbol:  11 (1) A                                    R^2 =  7.02854e-07
  Excitation energy:                                              12.452370 eV
  Excitation energy:                                               0.198109 eV
  Excitation energy:                                               0.364990 eV
  Excitation energy:                                               0.166881 eV
  Excitation energy:                                               0.987087 eV
  Excitation energy:                                               0.788978 eV
  Excitation energy:                                               0.622097 eV
  Excitation energy:                                               1.437979 eV
  Excitation energy:                                               1.239871 eV
  Excitation energy:                                               1.072989 eV
  Excitation energy:                                               0.450892 eV
  Excitation energy:                                               1.784273 eV
  Excitation energy:                                               1.586164 eV
  Excitation energy:                                               1.419283 eV
  Excitation energy:                                               0.797186 eV
  Excitation energy:                                               0.346294 eV
  Excitation energy:                                               2.637373 eV
  Excitation energy:                                               2.439264 eV
  Excitation energy:                                               2.272383 eV
  Excitation energy:                                               1.650286 eV
  Excitation energy:                                               1.199394 eV
  Excitation energy:                                               0.853100 eV
  Excitation energy:                                               3.358196 eV
  Excitation energy:                                               3.160087 eV
  Excitation energy:                                               2.993206 eV
  Excitation energy:                                               2.371109 eV
  Excitation energy:                                               1.920217 eV
  Excitation energy:                                               1.573923 eV
  Excitation energy:                                               0.720823 eV
  Excitation energy:                                               3.619163 eV
  Excitation energy:                                               3.421054 eV
  Excitation energy:                                               3.254172 eV
  Excitation energy:                                               2.632076 eV
  Excitation energy:                                               2.181183 eV
  Excitation energy:                                               1.834889 eV
  Excitation energy:                                               0.981789 eV
  Excitation energy:                                               0.260966 eV
  Excitation energy:                                               3.718843 eV
  Excitation energy:                                               3.520734 eV
  Excitation energy:                                               3.353852 eV
  Excitation energy:                                               2.731756 eV
  Excitation energy:                                               2.280863 eV
  Excitation energy:                                               1.934569 eV
  Excitation energy:                                               1.081469 eV
  Excitation energy:                                               0.360646 eV
  Excitation energy:                                               0.099680 eV

                    Orbital Energies (a.u.)
 --------------------------------------------------------------

 Alpha MOs
 -- Occupied --
-11.2470 -11.2291  -1.0310  -0.7863  -0.6377  -0.5817  -0.4979  -0.3746

          Ground-State Mulliken Net Atomic Charges

     Atom                 Charge (a.u.)
  ----------------------------------------
      1 H                     0.062858
      2 C                    -0.160652
      3 H                     0.062880
      4 C                    -0.042447
      5 H                     0.038671
      6 H                     0.038690
  ----------------------------------------
  Sum of atomic charges =     0.000000

                    Cartesian Multipole Moments
 -----------------------------------------------------------------
    Charge (ESU x 10^10)
                -0.0000
    Dipole Moment (Debye)
         X      -0.0386      Y       0.0368      Z       0.0004
       Tot       0.0533
    Quadrupole Moments (Debye-Ang)
        XX     -12.1261     XY      -0.1599     YY     -12.2655
        XZ       0.1552     YZ       0.1985     ZZ     -15.6080

 Total job time:  140.35s(wall), 428.47s(cpu)
        *  Thank you very much for using Q-Chem.  Have a nice day.  *
