 Q-Chem 5.4 (devel), Q-Chem, Inc., Pleasanton, CA (2021)
 Q-Chem 5.4.1 for Intel X86 EM64T Linux

User input:
--------------------------------------------------------------
$comment
generated from CCJob.Templates
$end

$rem
sym_ignore = true
method = adc(2)
ee_states = 10
basis = cc-pVDZ
mem_static = 1024
mem_total = 30000
adc_davidson_maxiter = 900
adc_davidson_conv = 6
adc_print = 3
adc_prop_es = true
adc_prop_es2es = true
adc_prop_tpa = true
molden_format = True
state_analysis = true
print_orbitals = 15
gen_scfman = false
fde_export_density = true
fde_details = 3
$end

$molecule
0 1
H -0.0348278765 -0.2442097827 0.0636489606
C -1.0765972949 -0.5242748755 -0.0023551776
H -1.313264467 -1.5767591607 -0.0757276926
C -2.043634118 0.3926884087 0.0061254933
H -1.8137616575 1.4459188338 0.0754456828
H -3.085977293 0.114931858 -0.0593381042
$end
--------------------------------------------------------------

             Standard Nuclear Orientation (Angstroms)
    I     Atom           X                Y                Z
 ----------------------------------------------------------------
    1      H      -0.0348278765    -0.2442097827     0.0636489606
    2      C      -1.0765972949    -0.5242748755    -0.0023551776
    3      H      -1.3132644670    -1.5767591607    -0.0757276926
    4      C      -2.0436341180     0.3926884087     0.0061254933
    5      H      -1.8137616575     1.4459188338     0.0754456828
    6      H      -3.0859772930     0.1149318580    -0.0593381042
 ----------------------------------------------------------------

   11     -78.0399253560      2.97E-09 Convergence criterion met
 Total energy in the final basis set = -78.03992536
  Excited state 1 (singlet, A)                                     [converged]
  Term symbol:  2 (1) A                                     R^2 =  7.98374e-14
  Excitation energy:                                               8.736992 eV
  Excited state 2 (singlet, A)                                     [converged]
  Term symbol:  3 (1) A                                     R^2 =  1.67897e-13
  Excitation energy:                                               9.054813 eV
  Excited state 3 (singlet, A)                                     [converged]
  Term symbol:  4 (1) A                                     R^2 =  1.77963e-13
  Excitation energy:                                               9.171166 eV
  Excited state 4 (singlet, A)                                     [converged]
  Term symbol:  5 (1) A                                     R^2 =  1.69268e-13
  Excitation energy:                                               9.833893 eV
  Excited state 5 (singlet, A)                                     [converged]
  Term symbol:  6 (1) A                                     R^2 =  1.68417e-13
  Excitation energy:                                              10.212515 eV
  Excited state 6 (singlet, A)                                     [converged]
  Term symbol:  7 (1) A                                     R^2 =  4.10076e-13
  Excitation energy:                                              10.536095 eV
  Excited state 7 (singlet, A)                                     [converged]
  Term symbol:  8 (1) A                                     R^2 =  5.48674e-11
  Excitation energy:                                              11.557637 eV
  Excited state 8 (singlet, A)                                     [converged]
  Term symbol:  9 (1) A                                     R^2 =  1.49392e-10
  Excitation energy:                                              12.165621 eV
  Excited state 9 (singlet, A)                                     [converged]
  Term symbol:  10 (1) A                                    R^2 =  2.43423e-09
  Excitation energy:                                              12.417341 eV
  Excited state 10 (singlet, A)                                     [converged]
  Term symbol:  11 (1) A                                    R^2 =  8.94895e-07
  Excitation energy:                                              12.646597 eV
  Excitation energy:                                               0.317822 eV
  Excitation energy:                                               0.434174 eV
  Excitation energy:                                               0.116352 eV
  Excitation energy:                                               1.096901 eV
  Excitation energy:                                               0.779080 eV
  Excitation energy:                                               0.662727 eV
  Excitation energy:                                               1.475523 eV
  Excitation energy:                                               1.157702 eV
  Excitation energy:                                               1.041349 eV
  Excitation energy:                                               0.378622 eV
  Excitation energy:                                               1.799104 eV
  Excitation energy:                                               1.481282 eV
  Excitation energy:                                               1.364930 eV
  Excitation energy:                                               0.702203 eV
  Excitation energy:                                               0.323581 eV
  Excitation energy:                                               2.820645 eV
  Excitation energy:                                               2.502824 eV
  Excitation energy:                                               2.386471 eV
  Excitation energy:                                               1.723744 eV
  Excitation energy:                                               1.345122 eV
  Excitation energy:                                               1.021541 eV
  Excitation energy:                                               3.428629 eV
  Excitation energy:                                               3.110808 eV
  Excitation energy:                                               2.994456 eV
  Excitation energy:                                               2.331728 eV
  Excitation energy:                                               1.953106 eV
  Excitation energy:                                               1.629526 eV
  Excitation energy:                                               0.607984 eV
  Excitation energy:                                               3.680349 eV
  Excitation energy:                                               3.362528 eV
  Excitation energy:                                               3.246175 eV
  Excitation energy:                                               2.583448 eV
  Excitation energy:                                               2.204826 eV
  Excitation energy:                                               1.881245 eV
  Excitation energy:                                               0.859704 eV
  Excitation energy:                                               0.251720 eV
  Excitation energy:                                               3.909605 eV
  Excitation energy:                                               3.591784 eV
  Excitation energy:                                               3.475431 eV
  Excitation energy:                                               2.812704 eV
  Excitation energy:                                               2.434082 eV
  Excitation energy:                                               2.110502 eV
  Excitation energy:                                               1.088960 eV
  Excitation energy:                                               0.480976 eV
  Excitation energy:                                               0.229256 eV

                    Orbital Energies (a.u.)
 --------------------------------------------------------------

 Alpha MOs
 -- Occupied --
-11.2351 -11.2334  -1.0323  -0.7898  -0.6412  -0.5819  -0.5046  -0.3740

          Ground-State Mulliken Net Atomic Charges

     Atom                 Charge (a.u.)
  ----------------------------------------
      1 H                     0.048119
      2 C                    -0.095173
      3 H                     0.047660
      4 C                    -0.095347
      5 H                     0.047099
      6 H                     0.047643
  ----------------------------------------
  Sum of atomic charges =     0.000000

                    Cartesian Multipole Moments
 -----------------------------------------------------------------
    Charge (ESU x 10^10)
                -0.0000
    Dipole Moment (Debye)
         X      -0.0017      Y       0.0021      Z      -0.0023
       Tot       0.0035
    Quadrupole Moments (Debye-Ang)
        XX     -12.2137     XY      -0.0594     YY     -12.2671
        XZ       0.1584     YZ       0.1873     ZZ     -15.5414

 Total job time:  105.51s(wall), 338.49s(cpu)
        *  Thank you very much for using Q-Chem.  Have a nice day.  *
