 Q-Chem 5.4 (devel), Q-Chem, Inc., Pleasanton, CA (2021)
 Q-Chem 5.4.1 for Intel X86 EM64T Linux

User input:
--------------------------------------------------------------
$comment
generated from CCJob.Templates
$end

$rem
sym_ignore = true
method = adc(2)
ee_states = 10
basis = cc-pVDZ
mem_static = 1024
mem_total = 40000
adc_davidson_maxiter = 900
adc_davidson_conv = 6
adc_print = 3
adc_prop_es = true
adc_prop_es2es = true
adc_prop_tpa = true
molden_format = True
state_analysis = true
print_orbitals = 15
gen_scfman = false
fde_export_density = true
fde_details = 3
$end

$molecule
0 1
H -0.0348278765 -0.2442097827 0.0636489606
C -1.0765972949 -0.5242748755 -0.0023551776
H -1.313264467 -1.5767591607 -0.0757276926
C -2.043634118 0.3926884087 0.0061254933
H -1.8137616575 1.4459188338 0.0804456828
H -3.085977293 0.114931858 -0.0693381042
$end
--------------------------------------------------------------

             Standard Nuclear Orientation (Angstroms)
    I     Atom           X                Y                Z
 ----------------------------------------------------------------
    1      H      -0.0348278765    -0.2442097827     0.0636489606
    2      C      -1.0765972949    -0.5242748755    -0.0023551776
    3      H      -1.3132644670    -1.5767591607    -0.0757276926
    4      C      -2.0436341180     0.3926884087     0.0061254933
    5      H      -1.8137616575     1.4459188338     0.0804456828
    6      H      -3.0859772930     0.1149318580    -0.0693381042
 ----------------------------------------------------------------

   10     -78.0399246644      9.52E-09 Convergence criterion met
 Total energy in the final basis set = -78.03992466
  Excited state 1 (singlet, A)                                     [converged]
  Term symbol:  2 (1) A                                     R^2 =  2.75718e-14
  Excitation energy:                                               8.736480 eV
  Excited state 2 (singlet, A)                                     [converged]
  Term symbol:  3 (1) A                                     R^2 =  1.13325e-13
  Excitation energy:                                               9.054387 eV
  Excited state 3 (singlet, A)                                     [converged]
  Term symbol:  4 (1) A                                     R^2 =  1.09044e-13
  Excitation energy:                                               9.169785 eV
  Excited state 4 (singlet, A)                                     [converged]
  Term symbol:  5 (1) A                                     R^2 =  1.44387e-13
  Excitation energy:                                               9.832339 eV
  Excited state 5 (singlet, A)                                     [converged]
  Term symbol:  6 (1) A                                     R^2 =  1.78464e-13
  Excitation energy:                                              10.211217 eV
  Excited state 6 (singlet, A)                                     [converged]
  Term symbol:  7 (1) A                                     R^2 =  5.60924e-13
  Excitation energy:                                              10.535046 eV
  Excited state 7 (singlet, A)                                     [converged]
  Term symbol:  8 (1) A                                     R^2 =  7.64585e-13
  Excitation energy:                                              11.555562 eV
  Excited state 8 (singlet, A)                                     [converged]
  Term symbol:  9 (1) A                                     R^2 =  5.52748e-11
  Excitation energy:                                              12.164934 eV
  Excited state 9 (singlet, A)                                     [converged]
  Term symbol:  10 (1) A                                    R^2 =  1.87064e-09
  Excitation energy:                                              12.416704 eV
  Excited state 10 (singlet, A)                                     [converged]
  Term symbol:  11 (1) A                                    R^2 =  6.50113e-07
  Excitation energy:                                              12.644261 eV
  Excitation energy:                                               0.317907 eV
  Excitation energy:                                               0.433305 eV
  Excitation energy:                                               0.115398 eV
  Excitation energy:                                               1.095859 eV
  Excitation energy:                                               0.777953 eV
  Excitation energy:                                               0.662555 eV
  Excitation energy:                                               1.474736 eV
  Excitation energy:                                               1.156830 eV
  Excitation energy:                                               1.041432 eV
  Excitation energy:                                               0.378877 eV
  Excitation energy:                                               1.798566 eV
  Excitation energy:                                               1.480659 eV
  Excitation energy:                                               1.365261 eV
  Excitation energy:                                               0.702707 eV
  Excitation energy:                                               0.323829 eV
  Excitation energy:                                               2.819082 eV
  Excitation energy:                                               2.501175 eV
  Excitation energy:                                               2.385777 eV
  Excitation energy:                                               1.723223 eV
  Excitation energy:                                               1.344345 eV
  Excitation energy:                                               1.020516 eV
  Excitation energy:                                               3.428454 eV
  Excitation energy:                                               3.110547 eV
  Excitation energy:                                               2.995149 eV
  Excitation energy:                                               2.332595 eV
  Excitation energy:                                               1.953717 eV
  Excitation energy:                                               1.629888 eV
  Excitation energy:                                               0.609372 eV
  Excitation energy:                                               3.680224 eV
  Excitation energy:                                               3.362317 eV
  Excitation energy:                                               3.246919 eV
  Excitation energy:                                               2.584364 eV
  Excitation energy:                                               2.205487 eV
  Excitation energy:                                               1.881658 eV
  Excitation energy:                                               0.861142 eV
  Excitation energy:                                               0.251770 eV
  Excitation energy:                                               3.907781 eV
  Excitation energy:                                               3.589874 eV
  Excitation energy:                                               3.474476 eV
  Excitation energy:                                               2.811921 eV
  Excitation energy:                                               2.433044 eV
  Excitation energy:                                               2.109215 eV
  Excitation energy:                                               1.088699 eV
  Excitation energy:                                               0.479327 eV
  Excitation energy:                                               0.227557 eV

                    Orbital Energies (a.u.)
 --------------------------------------------------------------

 Alpha MOs
 -- Occupied --
-11.2351 -11.2335  -1.0323  -0.7897  -0.6411  -0.5819  -0.5046  -0.3740

          Ground-State Mulliken Net Atomic Charges

     Atom                 Charge (a.u.)
  ----------------------------------------
      1 H                     0.048119
      2 C                    -0.095049
      3 H                     0.047662
      4 C                    -0.095821
      5 H                     0.047238
      6 H                     0.047852
  ----------------------------------------
  Sum of atomic charges =     0.000000

                    Cartesian Multipole Moments
 -----------------------------------------------------------------
    Charge (ESU x 10^10)
                -0.0000
    Dipole Moment (Debye)
         X      -0.0010      Y       0.0021      Z      -0.0058
       Tot       0.0062
    Quadrupole Moments (Debye-Ang)
        XX     -12.2179     XY      -0.0589     YY     -12.2680
        XZ       0.1762     YZ       0.1939     ZZ     -15.5406

 Total job time:  79.50s(wall), 210.32s(cpu)
        *  Thank you very much for using Q-Chem.  Have a nice day.  *
