 Q-Chem 5.4 (devel), Q-Chem, Inc., Pleasanton, CA (2021)
 Q-Chem 5.4.1 for Intel X86 EM64T Linux

User input:
--------------------------------------------------------------
$comment
generated from CCJob.Templates
$end

$rem
sym_ignore = true
method = adc(2)
ee_states = 10
basis = cc-pVDZ
mem_static = 1024
mem_total = 40000
adc_davidson_maxiter = 900
adc_davidson_conv = 6
adc_print = 3
adc_prop_es = true
adc_prop_es2es = true
adc_prop_tpa = true
molden_format = True
state_analysis = true
print_orbitals = 15
gen_scfman = false
fde_export_density = true
fde_details = 3
$end

$molecule
0 1
H -0.0348278765 -0.2442097827 0.0636489606
C -1.0765972949 -0.5242748755 -0.0023551776
H -1.313264467 -1.5367591607 -0.0757276926
C -2.043634118 0.3926884087 0.0061254933
H -1.8137616575 1.4459188338 0.0804456828
H -3.085977293 0.114931858 -0.0593381042
$end
--------------------------------------------------------------

             Standard Nuclear Orientation (Angstroms)
    I     Atom           X                Y                Z
 ----------------------------------------------------------------
    1      H      -0.0348278765    -0.2442097827     0.0636489606
    2      C      -1.0765972949    -0.5242748755    -0.0023551776
    3      H      -1.3132644670    -1.5367591607    -0.0757276926
    4      C      -2.0436341180     0.3926884087     0.0061254933
    5      H      -1.8137616575     1.4459188338     0.0804456828
    6      H      -3.0859772930     0.1149318580    -0.0593381042
 ----------------------------------------------------------------

   11     -78.0385877387      6.30E-09 Convergence criterion met
 Total energy in the final basis set = -78.03858774
  Excited state 1 (singlet, A)                                     [converged]
  Term symbol:  2 (1) A                                     R^2 =  4.03062e-13
  Excitation energy:                                               8.735483 eV
  Excited state 2 (singlet, A)                                     [converged]
  Term symbol:  3 (1) A                                     R^2 =  1.49269e-13
  Excitation energy:                                               9.109511 eV
  Excited state 3 (singlet, A)                                     [converged]
  Term symbol:  4 (1) A                                     R^2 =  1.64965e-13
  Excitation energy:                                               9.198984 eV
  Excited state 4 (singlet, A)                                     [converged]
  Term symbol:  5 (1) A                                     R^2 =  6.24977e-14
  Excitation energy:                                               9.888503 eV
  Excited state 5 (singlet, A)                                     [converged]
  Term symbol:  6 (1) A                                     R^2 =  1.38270e-13
  Excitation energy:                                              10.246316 eV
  Excited state 6 (singlet, A)                                     [converged]
  Term symbol:  7 (1) A                                     R^2 =  2.63701e-13
  Excitation energy:                                              10.561836 eV
  Excited state 7 (singlet, A)                                     [converged]
  Term symbol:  8 (1) A                                     R^2 =  3.97519e-10
  Excitation energy:                                              11.641922 eV
  Excited state 8 (singlet, A)                                     [converged]
  Term symbol:  9 (1) A                                     R^2 =  2.29324e-10
  Excitation energy:                                              12.211053 eV
  Excited state 9 (singlet, A)                                     [converged]
  Term symbol:  10 (1) A                                    R^2 =  2.51558e-09
  Excitation energy:                                              12.461090 eV
  Excited state 10 (singlet, A)                                     [converged]
  Term symbol:  11 (1) A                                    R^2 =  8.33730e-07
  Excitation energy:                                              12.742804 eV
  Excitation energy:                                               0.374028 eV
  Excitation energy:                                               0.463501 eV
  Excitation energy:                                               0.089473 eV
  Excitation energy:                                               1.153019 eV
  Excitation energy:                                               0.778992 eV
  Excitation energy:                                               0.689519 eV
  Excitation energy:                                               1.510832 eV
  Excitation energy:                                               1.136804 eV
  Excitation energy:                                               1.047331 eV
  Excitation energy:                                               0.357813 eV
  Excitation energy:                                               1.826353 eV
  Excitation energy:                                               1.452325 eV
  Excitation energy:                                               1.362852 eV
  Excitation energy:                                               0.673333 eV
  Excitation energy:                                               0.315520 eV
  Excitation energy:                                               2.906438 eV
  Excitation energy:                                               2.532411 eV
  Excitation energy:                                               2.442938 eV
  Excitation energy:                                               1.753419 eV
  Excitation energy:                                               1.395606 eV
  Excitation energy:                                               1.080086 eV
  Excitation energy:                                               3.475569 eV
  Excitation energy:                                               3.101542 eV
  Excitation energy:                                               3.012069 eV
  Excitation energy:                                               2.322550 eV
  Excitation energy:                                               1.964737 eV
  Excitation energy:                                               1.649217 eV
  Excitation energy:                                               0.569131 eV
  Excitation energy:                                               3.725607 eV
  Excitation energy:                                               3.351579 eV
  Excitation energy:                                               3.262106 eV
  Excitation energy:                                               2.572587 eV
  Excitation energy:                                               2.214775 eV
  Excitation energy:                                               1.899254 eV
  Excitation energy:                                               0.819169 eV
  Excitation energy:                                               0.250037 eV
  Excitation energy:                                               4.007320 eV
  Excitation energy:                                               3.633292 eV
  Excitation energy:                                               3.543819 eV
  Excitation energy:                                               2.854301 eV
  Excitation energy:                                               2.496488 eV
  Excitation energy:                                               2.180967 eV
  Excitation energy:                                               1.100882 eV
  Excitation energy:                                               0.531751 eV
  Excitation energy:                                               0.281713 eV

                    Orbital Energies (a.u.)
 --------------------------------------------------------------

 Alpha MOs
 -- Occupied --
-11.2339 -11.2298  -1.0339  -0.7935  -0.6448  -0.5825  -0.5078  -0.3737

          Ground-State Mulliken Net Atomic Charges

     Atom                 Charge (a.u.)
  ----------------------------------------
      1 H                     0.046880
      2 C                    -0.073617
      3 H                     0.035238
      4 C                    -0.102111
      5 H                     0.046490
      6 H                     0.047121
  ----------------------------------------
  Sum of atomic charges =     0.000000

                    Cartesian Multipole Moments
 -----------------------------------------------------------------
    Charge (ESU x 10^10)
                -0.0000
    Dipole Moment (Debye)
         X      -0.0039      Y      -0.0142      Z      -0.0016
       Tot       0.0148
    Quadrupole Moments (Debye-Ang)
        XX     -12.1841     XY      -0.0314     YY     -12.2637
        XZ       0.1557     YZ       0.1938     ZZ     -15.4917

 Total job time:  67.88s(wall), 230.41s(cpu)
        *  Thank you very much for using Q-Chem.  Have a nice day.  *
