 Q-Chem 5.4 (devel), Q-Chem, Inc., Pleasanton, CA (2021)
 Q-Chem 5.4.1 for Intel X86 EM64T Linux

User input:
--------------------------------------------------------------
$comment
generated from CCJob.Templates
$end

$rem
sym_ignore = true
method = adc(2)
ee_states = 10
basis = cc-pVDZ
mem_static = 1024
mem_total = 30000
adc_davidson_maxiter = 900
adc_davidson_conv = 6
adc_print = 3
adc_prop_es = true
adc_prop_es2es = true
adc_prop_tpa = true
molden_format = True
state_analysis = true
print_orbitals = 15
gen_scfman = false
fde_export_density = true
fde_details = 3
$end

$molecule
0 1
H -0.0348278765 -0.2442097827 0.0686489606
C -1.0765972949 -0.5242748755 -0.0023551776
H -1.313264467 -1.5767591607 -0.0757276926
C -2.043634118 0.3926884087 0.0061254933
H -1.8137616575 1.4459188338 0.0804456828
H -3.085977293 0.114931858 -0.0593381042
$end
--------------------------------------------------------------

             Standard Nuclear Orientation (Angstroms)
    I     Atom           X                Y                Z
 ----------------------------------------------------------------
    1      H      -0.0348278765    -0.2442097827     0.0686489606
    2      C      -1.0765972949    -0.5242748755    -0.0023551776
    3      H      -1.3132644670    -1.5767591607    -0.0757276926
    4      C      -2.0436341180     0.3926884087     0.0061254933
    5      H      -1.8137616575     1.4459188338     0.0804456828
    6      H      -3.0859772930     0.1149318580    -0.0593381042
 ----------------------------------------------------------------

   11     -78.0399267356      2.94E-09 Convergence criterion met
 Total energy in the final basis set = -78.03992674
  Excited state 1 (singlet, A)                                     [converged]
  Term symbol:  2 (1) A                                     R^2 =  2.18617e-13
  Excitation energy:                                               8.737045 eV
  Excited state 2 (singlet, A)                                     [converged]
  Term symbol:  3 (1) A                                     R^2 =  5.73940e-14
  Excitation energy:                                               9.054285 eV
  Excited state 3 (singlet, A)                                     [converged]
  Term symbol:  4 (1) A                                     R^2 =  1.14307e-13
  Excitation energy:                                               9.170301 eV
  Excited state 4 (singlet, A)                                     [converged]
  Term symbol:  5 (1) A                                     R^2 =  1.92409e-13
  Excitation energy:                                               9.832837 eV
  Excited state 5 (singlet, A)                                     [converged]
  Term symbol:  6 (1) A                                     R^2 =  3.54826e-13
  Excitation energy:                                              10.211714 eV
  Excited state 6 (singlet, A)                                     [converged]
  Term symbol:  7 (1) A                                     R^2 =  7.87592e-13
  Excitation energy:                                              10.535470 eV
  Excited state 7 (singlet, A)                                     [converged]
  Term symbol:  8 (1) A                                     R^2 =  2.68711e-11
  Excitation energy:                                              11.556217 eV
  Excited state 8 (singlet, A)                                     [converged]
  Term symbol:  9 (1) A                                     R^2 =  3.54462e-10
  Excitation energy:                                              12.165209 eV
  Excited state 9 (singlet, A)                                     [converged]
  Term symbol:  10 (1) A                                    R^2 =  3.89220e-09
  Excitation energy:                                              12.416970 eV
  Excited state 10 (singlet, A)                                     [converged]
  Term symbol:  11 (1) A                                    R^2 =  8.76069e-07
  Excitation energy:                                              12.644991 eV
  Excitation energy:                                               0.317240 eV
  Excitation energy:                                               0.433256 eV
  Excitation energy:                                               0.116016 eV
  Excitation energy:                                               1.095792 eV
  Excitation energy:                                               0.778552 eV
  Excitation energy:                                               0.662537 eV
  Excitation energy:                                               1.474669 eV
  Excitation energy:                                               1.157429 eV
  Excitation energy:                                               1.041413 eV
  Excitation energy:                                               0.378877 eV
  Excitation energy:                                               1.798425 eV
  Excitation energy:                                               1.481185 eV
  Excitation energy:                                               1.365169 eV
  Excitation energy:                                               0.702633 eV
  Excitation energy:                                               0.323756 eV
  Excitation energy:                                               2.819172 eV
  Excitation energy:                                               2.501932 eV
  Excitation energy:                                               2.385916 eV
  Excitation energy:                                               1.723380 eV
  Excitation energy:                                               1.344503 eV
  Excitation energy:                                               1.020747 eV
  Excitation energy:                                               3.428164 eV
  Excitation energy:                                               3.110924 eV
  Excitation energy:                                               2.994908 eV
  Excitation energy:                                               2.332372 eV
  Excitation energy:                                               1.953495 eV
  Excitation energy:                                               1.629739 eV
  Excitation energy:                                               0.608992 eV
  Excitation energy:                                               3.679925 eV
  Excitation energy:                                               3.362685 eV
  Excitation energy:                                               3.246669 eV
  Excitation energy:                                               2.584133 eV
  Excitation energy:                                               2.205256 eV
  Excitation energy:                                               1.881500 eV
  Excitation energy:                                               0.860753 eV
  Excitation energy:                                               0.251761 eV
  Excitation energy:                                               3.907946 eV
  Excitation energy:                                               3.590706 eV
  Excitation energy:                                               3.474690 eV
  Excitation energy:                                               2.812153 eV
  Excitation energy:                                               2.433277 eV
  Excitation energy:                                               2.109521 eV
  Excitation energy:                                               1.088774 eV
  Excitation energy:                                               0.479782 eV
  Excitation energy:                                               0.228021 eV

                    Orbital Energies (a.u.)
 --------------------------------------------------------------

 Alpha MOs
 -- Occupied --
-11.2351 -11.2335  -1.0323  -0.7897  -0.6411  -0.5819  -0.5046  -0.3740

          Ground-State Mulliken Net Atomic Charges

     Atom                 Charge (a.u.)
  ----------------------------------------
      1 H                     0.048212
      2 C                    -0.095283
      3 H                     0.047682
      4 C                    -0.095467
      5 H                     0.047193
      6 H                     0.047663
  ----------------------------------------
  Sum of atomic charges =     0.000000

                    Cartesian Multipole Moments
 -----------------------------------------------------------------
    Charge (ESU x 10^10)
                 0.0000
    Dipole Moment (Debye)
         X      -0.0022      Y       0.0015      Z       0.0047
       Tot       0.0054
    Quadrupole Moments (Debye-Ang)
        XX     -12.2132     XY      -0.0582     YY     -12.2680
        XZ       0.1537     YZ       0.1932     ZZ     -15.5408

 Total job time:  64.32s(wall), 211.28s(cpu)
        *  Thank you very much for using Q-Chem.  Have a nice day.  *
