 Q-Chem 5.4 (devel), Q-Chem, Inc., Pleasanton, CA (2021)
 Q-Chem 5.4.1 for Intel X86 EM64T Linux

User input:
--------------------------------------------------------------
$comment
generated from CCJob.Templates
$end

$rem
sym_ignore = true
method = adc(2)
ee_states = 10
basis = cc-pVDZ
mem_static = 1024
mem_total = 40000
adc_davidson_maxiter = 900
adc_davidson_conv = 6
adc_print = 3
adc_prop_es = true
adc_prop_es2es = true
adc_prop_tpa = true
molden_format = True
state_analysis = true
print_orbitals = 15
gen_scfman = false
fde_export_density = true
fde_details = 3
$end

$molecule
0 1
H -0.007521090966379124 -0.2810417971538608 0.06374210484251308
C -1.062075141568316 -0.5394985802817972 -0.0025125404493959004
H -1.2664008492028862 -1.6053320362602161 -0.07676633819289441
C -2.0605978060323182 0.40892448338240506 0.006758919949210897
H -1.8563039393953167 1.4747661653596082 0.08099540369366084
H -3.1151591597332247 0.15047232665230148 -0.05941710754267166
$end
--------------------------------------------------------------

             Standard Nuclear Orientation (Angstroms)
    I     Atom           X                Y                Z
 ----------------------------------------------------------------
    1      H      -0.0075210910    -0.2810417972     0.0637421048
    2      C      -1.0620751416    -0.5394985803    -0.0025125404
    3      H      -1.2664008492    -1.6053320363    -0.0767663382
    4      C      -2.0605978060     0.4089244834     0.0067589199
    5      H      -1.8563039394     1.4747661654     0.0809954037
    6      H      -3.1151591597     0.1504723267    -0.0594171075
 ----------------------------------------------------------------

   10     -78.0358837466      4.93E-09 Convergence criterion met
 Total energy in the final basis set = -78.03588375
  Excited state 1 (singlet, A)                                     [converged]
  Term symbol:  2 (1) A                                     R^2 =  1.70451e-13
  Excitation energy:                                               8.355656 eV
  Excited state 2 (singlet, A)                                     [converged]
  Term symbol:  3 (1) A                                     R^2 =  2.60055e-13
  Excitation energy:                                               8.818556 eV
  Excited state 3 (singlet, A)                                     [converged]
  Term symbol:  4 (1) A                                     R^2 =  8.69954e-14
  Excitation energy:                                               9.044078 eV
  Excited state 4 (singlet, A)                                     [converged]
  Term symbol:  5 (1) A                                     R^2 =  7.88107e-14
  Excitation energy:                                               9.683232 eV
  Excited state 5 (singlet, A)                                     [converged]
  Term symbol:  6 (1) A                                     R^2 =  1.05119e-13
  Excitation energy:                                               9.920944 eV
  Excited state 6 (singlet, A)                                     [converged]
  Term symbol:  7 (1) A                                     R^2 =  1.47126e-13
  Excitation energy:                                              10.238148 eV
  Excited state 7 (singlet, A)                                     [converged]
  Term symbol:  8 (1) A                                     R^2 =  7.46449e-13
  Excitation energy:                                              11.611985 eV
  Excited state 8 (singlet, A)                                     [converged]
  Term symbol:  9 (1) A                                     R^2 =  1.22149e-13
  Excitation energy:                                              11.667549 eV
  Excited state 9 (singlet, A)                                     [converged]
  Term symbol:  10 (1) A                                    R^2 =  1.76907e-13
  Excitation energy:                                              12.078428 eV
  Excited state 10 (singlet, A)                                     [converged]
  Term symbol:  11 (1) A                                    R^2 =  7.08838e-07
  Excitation energy:                                              12.683034 eV
  Excitation energy:                                               0.462901 eV
  Excitation energy:                                               0.688422 eV
  Excitation energy:                                               0.225521 eV
  Excitation energy:                                               1.327576 eV
  Excitation energy:                                               0.864676 eV
  Excitation energy:                                               0.639154 eV
  Excitation energy:                                               1.565288 eV
  Excitation energy:                                               1.102388 eV
  Excitation energy:                                               0.876866 eV
  Excitation energy:                                               0.237712 eV
  Excitation energy:                                               1.882492 eV
  Excitation energy:                                               1.419592 eV
  Excitation energy:                                               1.194070 eV
  Excitation energy:                                               0.554916 eV
  Excitation energy:                                               0.317204 eV
  Excitation energy:                                               3.256329 eV
  Excitation energy:                                               2.793429 eV
  Excitation energy:                                               2.567907 eV
  Excitation energy:                                               1.928753 eV
  Excitation energy:                                               1.691041 eV
  Excitation energy:                                               1.373837 eV
  Excitation energy:                                               3.311893 eV
  Excitation energy:                                               2.848993 eV
  Excitation energy:                                               2.623471 eV
  Excitation energy:                                               1.984317 eV
  Excitation energy:                                               1.746605 eV
  Excitation energy:                                               1.429401 eV
  Excitation energy:                                               0.055564 eV
  Excitation energy:                                               3.722772 eV
  Excitation energy:                                               3.259872 eV
  Excitation energy:                                               3.034350 eV
  Excitation energy:                                               2.395196 eV
  Excitation energy:                                               2.157484 eV
  Excitation energy:                                               1.840280 eV
  Excitation energy:                                               0.466443 eV
  Excitation energy:                                               0.410879 eV
  Excitation energy:                                               4.327379 eV
  Excitation energy:                                               3.864478 eV
  Excitation energy:                                               3.638957 eV
  Excitation energy:                                               2.999802 eV
  Excitation energy:                                               2.762090 eV
  Excitation energy:                                               2.444886 eV
  Excitation energy:                                               1.071049 eV
  Excitation energy:                                               1.015485 eV
  Excitation energy:                                               0.604606 eV

                    Orbital Energies (a.u.)
 --------------------------------------------------------------

 Alpha MOs
 -- Occupied --
-11.2454 -11.2440  -1.0171  -0.7964  -0.6287  -0.5812  -0.5060  -0.3644

          Ground-State Mulliken Net Atomic Charges

     Atom                 Charge (a.u.)
  ----------------------------------------
      1 H                     0.054602
      2 C                    -0.109211
      3 H                     0.054613
      4 C                    -0.109216
      5 H                     0.054612
      6 H                     0.054600
  ----------------------------------------
  Sum of atomic charges =     0.000000

                    Cartesian Multipole Moments
 -----------------------------------------------------------------
    Charge (ESU x 10^10)
                -0.0000
    Dipole Moment (Debye)
         X      -0.0000      Y       0.0000      Z       0.0000
       Tot       0.0000
    Quadrupole Moments (Debye-Ang)
        XX     -12.1576     XY      -0.3271     YY     -12.1938
        XZ       0.1532     YZ       0.1998     ZZ     -15.7415

 Total job time:  166.63s(wall), 524.48s(cpu)
        *  Thank you very much for using Q-Chem.  Have a nice day.  *
