 Q-Chem 5.4 (devel), Q-Chem, Inc., Pleasanton, CA (2021)
 Q-Chem 5.4.1 for Intel X86 EM64T Linux

User input:
--------------------------------------------------------------
$comment
generated from CCJob.Templates
$end

$rem
sym_ignore = true
method = adc(2)
ee_states = 10
basis = cc-pVDZ
mem_static = 1024
mem_total = 40000
adc_davidson_maxiter = 900
adc_davidson_conv = 6
adc_print = 3
adc_prop_es = true
adc_prop_es2es = true
adc_prop_tpa = true
molden_format = True
state_analysis = true
print_orbitals = 15
gen_scfman = false
fde_export_density = true
fde_details = 3
$end

$molecule
0 1
H -0.026399656183707106 -0.2649489880617919 0.0638050651410031
C -1.114195631164442 -0.4899840111580266 -0.0020244603592764723
H -1.2834601385658928 -1.5873017115095476 -0.07650041835619746
C -2.008474756435481 0.3594076742579784 0.006271159859247605
H -1.8392520900343476 1.4567370406094706 0.08072708385618782
H -3.096281954516312 0.1343863175620421 -0.0594788678409165
$end
--------------------------------------------------------------

             Standard Nuclear Orientation (Angstroms)
    I     Atom           X                Y                Z
 ----------------------------------------------------------------
    1      H      -0.0263996562    -0.2649489881     0.0638050651
    2      C      -1.1141956312    -0.4899840112    -0.0020244604
    3      H      -1.2834601386    -1.5873017115    -0.0765004184
    4      C      -2.0084747564     0.3594076743     0.0062711599
    5      H      -1.8392520900     1.4567370406     0.0807270839
    6      H      -3.0962819545     0.1343863176    -0.0594788678
 ----------------------------------------------------------------

   10     -78.0255579449      2.41E-09 Convergence criterion met
 Total energy in the final basis set = -78.02555794
  Excited state 1 (singlet, A)                                     [converged]
  Term symbol:  2 (1) A                                     R^2 =  1.18582e-13
  Excitation energy:                                               8.912713 eV
  Excited state 2 (singlet, A)                                     [converged]
  Term symbol:  3 (1) A                                     R^2 =  1.04736e-13
  Excitation energy:                                               9.642676 eV
  Excited state 3 (singlet, A)                                     [converged]
  Term symbol:  4 (1) A                                     R^2 =  5.98008e-13
  Excitation energy:                                               9.678102 eV
  Excited state 4 (singlet, A)                                     [converged]
  Term symbol:  5 (1) A                                     R^2 =  3.05183e-13
  Excitation energy:                                               9.813272 eV
  Excited state 5 (singlet, A)                                     [converged]
  Term symbol:  6 (1) A                                     R^2 =  4.22384e-13
  Excitation energy:                                              10.610113 eV
  Excited state 6 (singlet, A)                                     [converged]
  Term symbol:  7 (1) A                                     R^2 =  2.92066e-13
  Excitation energy:                                              10.882858 eV
  Excited state 7 (singlet, A)                                     [converged]
  Term symbol:  8 (1) A                                     R^2 =  4.53858e-13
  Excitation energy:                                              11.595577 eV
  Excited state 8 (singlet, A)                                     [converged]
  Term symbol:  9 (1) A                                     R^2 =  3.71356e-13
  Excitation energy:                                              11.671818 eV
  Excited state 9 (singlet, A)                                     [converged]
  Term symbol:  10 (1) A                                    R^2 =  5.00915e-11
  Excitation energy:                                              11.957643 eV
  Excited state 10 (singlet, A)                                     [converged]
  Term symbol:  11 (1) A                                    R^2 =  7.77304e-07
  Excitation energy:                                              12.629298 eV
  Excitation energy:                                               0.729964 eV
  Excitation energy:                                               0.765389 eV
  Excitation energy:                                               0.035426 eV
  Excitation energy:                                               0.900560 eV
  Excitation energy:                                               0.170596 eV
  Excitation energy:                                               0.135170 eV
  Excitation energy:                                               1.697400 eV
  Excitation energy:                                               0.967437 eV
  Excitation energy:                                               0.932011 eV
  Excitation energy:                                               0.796841 eV
  Excitation energy:                                               1.970146 eV
  Excitation energy:                                               1.240182 eV
  Excitation energy:                                               1.204756 eV
  Excitation energy:                                               1.069586 eV
  Excitation energy:                                               0.272745 eV
  Excitation energy:                                               2.682864 eV
  Excitation energy:                                               1.952900 eV
  Excitation energy:                                               1.917475 eV
  Excitation energy:                                               1.782304 eV
  Excitation energy:                                               0.985464 eV
  Excitation energy:                                               0.712719 eV
  Excitation energy:                                               2.759105 eV
  Excitation energy:                                               2.029141 eV
  Excitation energy:                                               1.993716 eV
  Excitation energy:                                               1.858545 eV
  Excitation energy:                                               1.061705 eV
  Excitation energy:                                               0.788959 eV
  Excitation energy:                                               0.076241 eV
  Excitation energy:                                               3.044930 eV
  Excitation energy:                                               2.314967 eV
  Excitation energy:                                               2.279541 eV
  Excitation energy:                                               2.144371 eV
  Excitation energy:                                               1.347530 eV
  Excitation energy:                                               1.074785 eV
  Excitation energy:                                               0.362066 eV
  Excitation energy:                                               0.285825 eV
  Excitation energy:                                               3.716586 eV
  Excitation energy:                                               2.986622 eV
  Excitation energy:                                               2.951196 eV
  Excitation energy:                                               2.816026 eV
  Excitation energy:                                               2.019185 eV
  Excitation energy:                                               1.746440 eV
  Excitation energy:                                               1.033722 eV
  Excitation energy:                                               0.957481 eV
  Excitation energy:                                               0.671656 eV

                    Orbital Energies (a.u.)
 --------------------------------------------------------------

 Alpha MOs
 -- Occupied --
-11.2286 -11.2257  -1.0589  -0.7743  -0.6310  -0.6074  -0.4697  -0.4016

          Ground-State Mulliken Net Atomic Charges

     Atom                 Charge (a.u.)
  ----------------------------------------
      1 H                     0.047533
      2 C                    -0.095075
      3 H                     0.047549
      4 C                    -0.095086
      5 H                     0.047548
      6 H                     0.047531
  ----------------------------------------
  Sum of atomic charges =     0.000000

                    Cartesian Multipole Moments
 -----------------------------------------------------------------
    Charge (ESU x 10^10)
                 0.0000
    Dipole Moment (Debye)
         X      -0.0000      Y       0.0000      Z       0.0000
       Tot       0.0000
    Quadrupole Moments (Debye-Ang)
        XX     -12.2968     XY      -0.3236     YY     -12.3323
        XZ       0.1242     YZ       0.1634     ZZ     -15.2769

 Total job time:  146.77s(wall), 457.88s(cpu)
        *  Thank you very much for using Q-Chem.  Have a nice day.  *
