 Q-Chem 5.4 (devel), Q-Chem, Inc., Pleasanton, CA (2021)
 Q-Chem 5.4.1 for Intel X86 EM64T Linux

User input:
--------------------------------------------------------------
$comment
generated from CCJob.Templates
$end

$rem
sym_ignore = true
method = adc(2)
ee_states = 10
basis = cc-pVDZ
mem_static = 1024
mem_total = 40000
adc_davidson_maxiter = 900
adc_davidson_conv = 6
adc_print = 3
adc_prop_es = true
adc_prop_es2es = true
adc_prop_tpa = true
molden_format = True
state_analysis = true
print_orbitals = 15
gen_scfman = false
fde_export_density = true
fde_details = 3
$end

$molecule
0 1
H -0.0348278765 -0.2442097827 0.0636489606
C -1.0765972949 -0.5242748755 -0.0023551776
H -1.313264467 -1.5667591607 -0.0757276926
C -2.043634118 0.3926884087 0.0061254933
H -1.8137616575 1.4459188338 0.0804456828
H -3.085977293 0.114931858 -0.0593381042
$end
--------------------------------------------------------------

             Standard Nuclear Orientation (Angstroms)
    I     Atom           X                Y                Z
 ----------------------------------------------------------------
    1      H      -0.0348278765    -0.2442097827     0.0636489606
    2      C      -1.0765972949    -0.5242748755    -0.0023551776
    3      H      -1.3132644670    -1.5667591607    -0.0757276926
    4      C      -2.0436341180     0.3926884087     0.0061254933
    5      H      -1.8137616575     1.4459188338     0.0804456828
    6      H      -3.0859772930     0.1149318580    -0.0593381042
 ----------------------------------------------------------------

   11     -78.0398162869      8.11E-09 Convergence criterion met
 Total energy in the final basis set = -78.03981629
  Excited state 1 (singlet, A)                                     [converged]
  Term symbol:  2 (1) A                                     R^2 =  3.66447e-14
  Excitation energy:                                               8.736675 eV
  Excited state 2 (singlet, A)                                     [converged]
  Term symbol:  3 (1) A                                     R^2 =  6.36832e-14
  Excitation energy:                                               9.068983 eV
  Excited state 3 (singlet, A)                                     [converged]
  Term symbol:  4 (1) A                                     R^2 =  8.66460e-14
  Excitation energy:                                               9.178330 eV
  Excited state 4 (singlet, A)                                     [converged]
  Term symbol:  5 (1) A                                     R^2 =  1.82698e-13
  Excitation energy:                                               9.848578 eV
  Excited state 5 (singlet, A)                                     [converged]
  Term symbol:  6 (1) A                                     R^2 =  2.27054e-13
  Excitation energy:                                              10.220715 eV
  Excited state 6 (singlet, A)                                     [converged]
  Term symbol:  7 (1) A                                     R^2 =  6.05598e-13
  Excitation energy:                                              10.541490 eV
  Excited state 7 (singlet, A)                                     [converged]
  Term symbol:  8 (1) A                                     R^2 =  7.37006e-11
  Excitation energy:                                              11.579078 eV
  Excited state 8 (singlet, A)                                     [converged]
  Term symbol:  9 (1) A                                     R^2 =  1.79982e-10
  Excitation energy:                                              12.177293 eV
  Excited state 9 (singlet, A)                                     [converged]
  Term symbol:  10 (1) A                                    R^2 =  1.53217e-09
  Excitation energy:                                              12.427777 eV
  Excited state 10 (singlet, A)                                     [converged]
  Term symbol:  11 (1) A                                    R^2 =  7.20238e-07
  Excitation energy:                                              12.672842 eV
  Excitation energy:                                               0.332308 eV
  Excitation energy:                                               0.441655 eV
  Excitation energy:                                               0.109347 eV
  Excitation energy:                                               1.111903 eV
  Excitation energy:                                               0.779595 eV
  Excitation energy:                                               0.670248 eV
  Excitation energy:                                               1.484040 eV
  Excitation energy:                                               1.151731 eV
  Excitation energy:                                               1.042385 eV
  Excitation energy:                                               0.372136 eV
  Excitation energy:                                               1.804816 eV
  Excitation energy:                                               1.472507 eV
  Excitation energy:                                               1.363161 eV
  Excitation energy:                                               0.692912 eV
  Excitation energy:                                               0.320776 eV
  Excitation energy:                                               2.842403 eV
  Excitation energy:                                               2.510094 eV
  Excitation energy:                                               2.400748 eV
  Excitation energy:                                               1.730500 eV
  Excitation energy:                                               1.358363 eV
  Excitation energy:                                               1.037587 eV
  Excitation energy:                                               3.440619 eV
  Excitation energy:                                               3.108310 eV
  Excitation energy:                                               2.998964 eV
  Excitation energy:                                               2.328715 eV
  Excitation energy:                                               1.956579 eV
  Excitation energy:                                               1.635803 eV
  Excitation energy:                                               0.598216 eV
  Excitation energy:                                               3.691102 eV
  Excitation energy:                                               3.358794 eV
  Excitation energy:                                               3.249448 eV
  Excitation energy:                                               2.579199 eV
  Excitation energy:                                               2.207063 eV
  Excitation energy:                                               1.886287 eV
  Excitation energy:                                               0.848700 eV
  Excitation energy:                                               0.250484 eV
  Excitation energy:                                               3.936167 eV
  Excitation energy:                                               3.603859 eV
  Excitation energy:                                               3.494512 eV
  Excitation energy:                                               2.824264 eV
  Excitation energy:                                               2.452128 eV
  Excitation energy:                                               2.131352 eV
  Excitation energy:                                               1.093765 eV
  Excitation energy:                                               0.495549 eV
  Excitation energy:                                               0.245065 eV

                    Orbital Energies (a.u.)
 --------------------------------------------------------------

 Alpha MOs
 -- Occupied --
-11.2346 -11.2327  -1.0327  -0.7907  -0.6420  -0.5821  -0.5054  -0.3739

          Ground-State Mulliken Net Atomic Charges

     Atom                 Charge (a.u.)
  ----------------------------------------
      1 H                     0.047796
      2 C                    -0.090001
      3 H                     0.044810
      4 C                    -0.097138
      5 H                     0.047013
      6 H                     0.047520
  ----------------------------------------
  Sum of atomic charges =     0.000000

                    Cartesian Multipole Moments
 -----------------------------------------------------------------
    Charge (ESU x 10^10)
                -0.0000
    Dipole Moment (Debye)
         X      -0.0023      Y      -0.0026      Z       0.0005
       Tot       0.0036
    Quadrupole Moments (Debye-Ang)
        XX     -12.2063     XY      -0.0513     YY     -12.2667
        XZ       0.1535     YZ       0.1935     ZZ     -15.5288

 Total job time:  79.23s(wall), 216.90s(cpu)
        *  Thank you very much for using Q-Chem.  Have a nice day.  *
