 Q-Chem 5.4 (devel), Q-Chem, Inc., Pleasanton, CA (2021)
 Q-Chem 5.4.1 for Intel X86 EM64T Linux

User input:
--------------------------------------------------------------
$comment
generated from CCJob.Templates
$end

$rem
sym_ignore = true
method = adc(2)
ee_states = 10
basis = cc-pVDZ
mem_static = 1024
mem_total = 40000
adc_davidson_maxiter = 900
adc_davidson_conv = 6
adc_print = 3
adc_prop_es = true
adc_prop_es2es = true
adc_prop_tpa = true
molden_format = True
state_analysis = true
print_orbitals = 15
gen_scfman = false
fde_export_density = true
fde_details = 3
$end

$molecule
0 1
H -0.0348278765 -0.2442097827 0.0636489606
C -1.0765972949 -0.5242748755 -0.0023551776
H -1.313264467 -1.5767591607 -0.0757276926
C -2.033634118 0.3926884087 0.0061254933
H -1.8137616575 1.4459188338 0.0804456828
H -3.085977293 0.114931858 -0.0593381042
$end
--------------------------------------------------------------

             Standard Nuclear Orientation (Angstroms)
    I     Atom           X                Y                Z
 ----------------------------------------------------------------
    1      H      -0.0348278765    -0.2442097827     0.0636489606
    2      C      -1.0765972949    -0.5242748755    -0.0023551776
    3      H      -1.3132644670    -1.5767591607    -0.0757276926
    4      C      -2.0336341180     0.3926884087     0.0061254933
    5      H      -1.8137616575     1.4459188338     0.0804456828
    6      H      -3.0859772930     0.1149318580    -0.0593381042
 ----------------------------------------------------------------

   11     -78.0400449230      7.86E-09 Convergence criterion met
 Total energy in the final basis set = -78.04004492
  Excited state 1 (singlet, A)                                     [converged]
  Term symbol:  2 (1) A                                     R^2 =  1.43743e-13
  Excitation energy:                                               8.800415 eV
  Excited state 2 (singlet, A)                                     [converged]
  Term symbol:  3 (1) A                                     R^2 =  3.91227e-13
  Excitation energy:                                               9.050181 eV
  Excited state 3 (singlet, A)                                     [converged]
  Term symbol:  4 (1) A                                     R^2 =  1.38961e-13
  Excitation energy:                                               9.201162 eV
  Excited state 4 (singlet, A)                                     [converged]
  Term symbol:  5 (1) A                                     R^2 =  2.35177e-13
  Excitation energy:                                               9.836385 eV
  Excited state 5 (singlet, A)                                     [converged]
  Term symbol:  6 (1) A                                     R^2 =  1.07267e-13
  Excitation energy:                                              10.258649 eV
  Excited state 6 (singlet, A)                                     [converged]
  Term symbol:  7 (1) A                                     R^2 =  5.35832e-13
  Excitation energy:                                              10.594674 eV
  Excited state 7 (singlet, A)                                     [converged]
  Term symbol:  8 (1) A                                     R^2 =  4.25552e-11
  Excitation energy:                                              11.512937 eV
  Excited state 8 (singlet, A)                                     [converged]
  Term symbol:  9 (1) A                                     R^2 =  1.09262e-09
  Excitation energy:                                              12.203631 eV
  Excited state 9 (singlet, A)                                     [converged]
  Term symbol:  10 (1) A                                    R^2 =  3.26444e-08
  Excitation energy:                                              12.455677 eV
  Excited state 10 (singlet, A)                                     [converged]
  Term symbol:  11 (1) A                                    R^2 =  9.46367e-07
  Excitation energy:                                              12.581241 eV
  Excitation energy:                                               0.249766 eV
  Excitation energy:                                               0.400747 eV
  Excitation energy:                                               0.150981 eV
  Excitation energy:                                               1.035970 eV
  Excitation energy:                                               0.786204 eV
  Excitation energy:                                               0.635223 eV
  Excitation energy:                                               1.458234 eV
  Excitation energy:                                               1.208468 eV
  Excitation energy:                                               1.057487 eV
  Excitation energy:                                               0.422264 eV
  Excitation energy:                                               1.794258 eV
  Excitation energy:                                               1.544493 eV
  Excitation energy:                                               1.393511 eV
  Excitation energy:                                               0.758289 eV
  Excitation energy:                                               0.336025 eV
  Excitation energy:                                               2.712522 eV
  Excitation energy:                                               2.462756 eV
  Excitation energy:                                               2.311775 eV
  Excitation energy:                                               1.676552 eV
  Excitation energy:                                               1.254288 eV
  Excitation energy:                                               0.918264 eV
  Excitation energy:                                               3.403216 eV
  Excitation energy:                                               3.153450 eV
  Excitation energy:                                               3.002469 eV
  Excitation energy:                                               2.367246 eV
  Excitation energy:                                               1.944982 eV
  Excitation energy:                                               1.608958 eV
  Excitation energy:                                               0.690694 eV
  Excitation energy:                                               3.655262 eV
  Excitation energy:                                               3.405496 eV
  Excitation energy:                                               3.254515 eV
  Excitation energy:                                               2.619292 eV
  Excitation energy:                                               2.197028 eV
  Excitation energy:                                               1.861003 eV
  Excitation energy:                                               0.942740 eV
  Excitation energy:                                               0.252046 eV
  Excitation energy:                                               3.780825 eV
  Excitation energy:                                               3.531060 eV
  Excitation energy:                                               3.380079 eV
  Excitation energy:                                               2.744856 eV
  Excitation energy:                                               2.322592 eV
  Excitation energy:                                               1.986567 eV
  Excitation energy:                                               1.068303 eV
  Excitation energy:                                               0.377609 eV
  Excitation energy:                                               0.125564 eV

                    Orbital Energies (a.u.)
 --------------------------------------------------------------

 Alpha MOs
 -- Occupied --
-11.2345 -11.2327  -1.0342  -0.7886  -0.6408  -0.5836  -0.5024  -0.3758

          Ground-State Mulliken Net Atomic Charges

     Atom                 Charge (a.u.)
  ----------------------------------------
      1 H                     0.047348
      2 C                    -0.091773
      3 H                     0.047544
      4 C                    -0.098312
      5 H                     0.046457
      6 H                     0.048736
  ----------------------------------------
  Sum of atomic charges =     0.000000

                    Cartesian Multipole Moments
 -----------------------------------------------------------------
    Charge (ESU x 10^10)
                -0.0000
    Dipole Moment (Debye)
         X       0.0009      Y       0.0050      Z       0.0022
       Tot       0.0056
    Quadrupole Moments (Debye-Ang)
        XX     -12.2587     XY      -0.0721     YY     -12.2443
        XZ       0.1477     YZ       0.1934     ZZ     -15.5215

 Total job time:  75.22s(wall), 202.30s(cpu)
        *  Thank you very much for using Q-Chem.  Have a nice day.  *
