 Q-Chem 5.4 (devel), Q-Chem, Inc., Pleasanton, CA (2021)
 Q-Chem 5.4.1 for Intel X86 EM64T Linux

User input:
--------------------------------------------------------------
$comment
generated from CCJob.Templates
$end

$rem
sym_ignore = true
method = adc(2)
ee_states = 10
basis = cc-pVDZ
mem_static = 1024
mem_total = 30000
adc_davidson_maxiter = 900
adc_davidson_conv = 6
adc_print = 3
adc_prop_es = true
adc_prop_es2es = true
adc_prop_tpa = true
molden_format = True
state_analysis = true
print_orbitals = 15
gen_scfman = false
fde_export_density = true
fde_details = 3
$end

$molecule
0 1
H -0.0348278765 -0.2442097827 0.0636489606
C -1.0765972949 -0.5242748755 -0.0023551776
H -1.313264467 -1.5767591607 -0.0757276926
C -2.043634118 0.3926884087 0.0061254933
H -1.8137616575 1.4459188338 0.0804456828
H -3.090977293 0.114931858 -0.0593381042
$end
--------------------------------------------------------------

             Standard Nuclear Orientation (Angstroms)
    I     Atom           X                Y                Z
 ----------------------------------------------------------------
    1      H      -0.0348278765    -0.2442097827     0.0636489606
    2      C      -1.0765972949    -0.5242748755    -0.0023551776
    3      H      -1.3132644670    -1.5767591607    -0.0757276926
    4      C      -2.0436341180     0.3926884087     0.0061254933
    5      H      -1.8137616575     1.4459188338     0.0804456828
    6      H      -3.0909772930     0.1149318580    -0.0593381042
 ----------------------------------------------------------------

   11     -78.0399309621      6.76E-09 Convergence criterion met
 Total energy in the final basis set = -78.03993096
  Excited state 1 (singlet, A)                                     [converged]
  Term symbol:  2 (1) A                                     R^2 =  5.02464e-13
  Excitation energy:                                               8.737371 eV
  Excited state 2 (singlet, A)                                     [converged]
  Term symbol:  3 (1) A                                     R^2 =  4.42165e-13
  Excitation energy:                                               9.047003 eV
  Excited state 3 (singlet, A)                                     [converged]
  Term symbol:  4 (1) A                                     R^2 =  5.92960e-13
  Excitation energy:                                               9.167124 eV
  Excited state 4 (singlet, A)                                     [converged]
  Term symbol:  5 (1) A                                     R^2 =  4.21601e-13
  Excitation energy:                                               9.825027 eV
  Excited state 5 (singlet, A)                                     [converged]
  Term symbol:  6 (1) A                                     R^2 =  5.33404e-13
  Excitation energy:                                              10.208180 eV
  Excited state 6 (singlet, A)                                     [converged]
  Term symbol:  7 (1) A                                     R^2 =  4.24045e-13
  Excitation energy:                                              10.533192 eV
  Excited state 7 (singlet, A)                                     [converged]
  Term symbol:  8 (1) A                                     R^2 =  6.43989e-11
  Excitation energy:                                              11.545723 eV
  Excited state 8 (singlet, A)                                     [converged]
  Term symbol:  9 (1) A                                     R^2 =  5.48520e-11
  Excitation energy:                                              12.159304 eV
  Excited state 9 (singlet, A)                                     [converged]
  Term symbol:  10 (1) A                                    R^2 =  8.08862e-10
  Excitation energy:                                              12.411839 eV
  Excited state 10 (singlet, A)                                     [converged]
  Term symbol:  11 (1) A                                    R^2 =  5.89994e-07
  Excitation energy:                                              12.631035 eV
  Excitation energy:                                               0.309632 eV
  Excitation energy:                                               0.429753 eV
  Excitation energy:                                               0.120121 eV
  Excitation energy:                                               1.087657 eV
  Excitation energy:                                               0.778025 eV
  Excitation energy:                                               0.657904 eV
  Excitation energy:                                               1.470810 eV
  Excitation energy:                                               1.161177 eV
  Excitation energy:                                               1.041056 eV
  Excitation energy:                                               0.383153 eV
  Excitation energy:                                               1.795821 eV
  Excitation energy:                                               1.486189 eV
  Excitation energy:                                               1.366068 eV
  Excitation energy:                                               0.708164 eV
  Excitation energy:                                               0.325011 eV
  Excitation energy:                                               2.808352 eV
  Excitation energy:                                               2.498720 eV
  Excitation energy:                                               2.378599 eV
  Excitation energy:                                               1.720695 eV
  Excitation energy:                                               1.337542 eV
  Excitation energy:                                               1.012531 eV
  Excitation energy:                                               3.421934 eV
  Excitation energy:                                               3.112302 eV
  Excitation energy:                                               2.992181 eV
  Excitation energy:                                               2.334277 eV
  Excitation energy:                                               1.951124 eV
  Excitation energy:                                               1.626113 eV
  Excitation energy:                                               0.613582 eV
  Excitation energy:                                               3.674468 eV
  Excitation energy:                                               3.364836 eV
  Excitation energy:                                               3.244715 eV
  Excitation energy:                                               2.586811 eV
  Excitation energy:                                               2.203658 eV
  Excitation energy:                                               1.878647 eV
  Excitation energy:                                               0.866116 eV
  Excitation energy:                                               0.252534 eV
  Excitation energy:                                               3.893664 eV
  Excitation energy:                                               3.584032 eV
  Excitation energy:                                               3.463911 eV
  Excitation energy:                                               2.806007 eV
  Excitation energy:                                               2.422855 eV
  Excitation energy:                                               2.097843 eV
  Excitation energy:                                               1.085312 eV
  Excitation energy:                                               0.471730 eV
  Excitation energy:                                               0.219196 eV

                    Orbital Energies (a.u.)
 --------------------------------------------------------------

 Alpha MOs
 -- Occupied --
-11.2354 -11.2337  -1.0321  -0.7893  -0.6407  -0.5818  -0.5042  -0.3740

          Ground-State Mulliken Net Atomic Charges

     Atom                 Charge (a.u.)
  ----------------------------------------
      1 H                     0.048216
      2 C                    -0.094328
      3 H                     0.047737
      4 C                    -0.098009
      5 H                     0.047351
      6 H                     0.049033
  ----------------------------------------
  Sum of atomic charges =     0.000000

                    Cartesian Multipole Moments
 -----------------------------------------------------------------
    Charge (ESU x 10^10)
                -0.0000
    Dipole Moment (Debye)
         X       0.0003      Y       0.0022      Z       0.0015
       Tot       0.0026
    Quadrupole Moments (Debye-Ang)
        XX     -12.2201     XY      -0.0600     YY     -12.2709
        XZ       0.1522     YZ       0.1935     ZZ     -15.5471

 Total job time:  102.46s(wall), 338.15s(cpu)
        *  Thank you very much for using Q-Chem.  Have a nice day.  *
