 Q-Chem 5.4 (devel), Q-Chem, Inc., Pleasanton, CA (2021)
 Q-Chem 5.4.1 for Intel X86 EM64T Linux

User input:
--------------------------------------------------------------
$comment
generated from CCJob.Templates
$end

$rem
sym_ignore = true
method = adc(2)
ee_states = 10
basis = cc-pVDZ
mem_static = 1024
mem_total = 40000
adc_davidson_maxiter = 900
adc_davidson_conv = 6
adc_print = 3
adc_prop_es = true
adc_prop_es2es = true
adc_prop_tpa = true
molden_format = True
state_analysis = true
print_orbitals = 15
gen_scfman = false
fde_export_density = true
fde_details = 3
$end

$molecule
0 1
H -0.0348278765 -0.2442097827 0.0636489606
C -1.0765972949 -0.5242748755 -0.0023551776
H -1.313264467 -1.5767591607 -0.0757276926
C -2.043634118 0.3926884087 0.0061254933
H -1.8137616575 1.4459188338 0.0804456828
H -3.085977293 0.154931858 -0.0593381042
$end
--------------------------------------------------------------

             Standard Nuclear Orientation (Angstroms)
    I     Atom           X                Y                Z
 ----------------------------------------------------------------
    1      H      -0.0348278765    -0.2442097827     0.0636489606
    2      C      -1.0765972949    -0.5242748755    -0.0023551776
    3      H      -1.3132644670    -1.5767591607    -0.0757276926
    4      C      -2.0436341180     0.3926884087     0.0061254933
    5      H      -1.8137616575     1.4459188338     0.0804456828
    6      H      -3.0859772930     0.1549318580    -0.0593381042
 ----------------------------------------------------------------

   11     -78.0396877467      7.66E-09 Convergence criterion met
 Total energy in the final basis set = -78.03968775
  Excited state 1 (singlet, A)                                     [converged]
  Term symbol:  2 (1) A                                     R^2 =  3.10827e-13
  Excitation energy:                                               8.733890 eV
  Excited state 2 (singlet, A)                                     [converged]
  Term symbol:  3 (1) A                                     R^2 =  5.58063e-13
  Excitation energy:                                               9.026676 eV
  Excited state 3 (singlet, A)                                     [converged]
  Term symbol:  4 (1) A                                     R^2 =  6.25077e-13
  Excitation energy:                                               9.203157 eV
  Excited state 4 (singlet, A)                                     [converged]
  Term symbol:  5 (1) A                                     R^2 =  3.73104e-13
  Excitation energy:                                               9.847366 eV
  Excited state 5 (singlet, A)                                     [converged]
  Term symbol:  6 (1) A                                     R^2 =  2.64447e-13
  Excitation energy:                                              10.236375 eV
  Excited state 6 (singlet, A)                                     [converged]
  Term symbol:  7 (1) A                                     R^2 =  5.99935e-13
  Excitation energy:                                              10.565747 eV
  Excited state 7 (singlet, A)                                     [converged]
  Term symbol:  8 (1) A                                     R^2 =  1.64854e-11
  Excitation energy:                                              11.565767 eV
  Excited state 8 (singlet, A)                                     [converged]
  Term symbol:  9 (1) A                                     R^2 =  2.23041e-12
  Excitation energy:                                              12.144558 eV
  Excited state 9 (singlet, A)                                     [converged]
  Term symbol:  10 (1) A                                    R^2 =  6.21846e-11
  Excitation energy:                                              12.403801 eV
  Excited state 10 (singlet, A)                                     [converged]
  Term symbol:  11 (1) A                                    R^2 =  6.69749e-07
  Excitation energy:                                              12.645212 eV
  Excitation energy:                                               0.292786 eV
  Excitation energy:                                               0.469266 eV
  Excitation energy:                                               0.176481 eV
  Excitation energy:                                               1.113476 eV
  Excitation energy:                                               0.820690 eV
  Excitation energy:                                               0.644209 eV
  Excitation energy:                                               1.502484 eV
  Excitation energy:                                               1.209699 eV
  Excitation energy:                                               1.033218 eV
  Excitation energy:                                               0.389008 eV
  Excitation energy:                                               1.831856 eV
  Excitation energy:                                               1.539071 eV
  Excitation energy:                                               1.362590 eV
  Excitation energy:                                               0.718380 eV
  Excitation energy:                                               0.329372 eV
  Excitation energy:                                               2.831877 eV
  Excitation energy:                                               2.539091 eV
  Excitation energy:                                               2.362611 eV
  Excitation energy:                                               1.718401 eV
  Excitation energy:                                               1.329393 eV
  Excitation energy:                                               1.000021 eV
  Excitation energy:                                               3.410667 eV
  Excitation energy:                                               3.117882 eV
  Excitation energy:                                               2.941401 eV
  Excitation energy:                                               2.297191 eV
  Excitation energy:                                               1.908183 eV
  Excitation energy:                                               1.578811 eV
  Excitation energy:                                               0.578790 eV
  Excitation energy:                                               3.669911 eV
  Excitation energy:                                               3.377125 eV
  Excitation energy:                                               3.200644 eV
  Excitation energy:                                               2.556435 eV
  Excitation energy:                                               2.167427 eV
  Excitation energy:                                               1.838055 eV
  Excitation energy:                                               0.838034 eV
  Excitation energy:                                               0.259244 eV
  Excitation energy:                                               3.911321 eV
  Excitation energy:                                               3.618536 eV
  Excitation energy:                                               3.442055 eV
  Excitation energy:                                               2.797845 eV
  Excitation energy:                                               2.408837 eV
  Excitation energy:                                               2.079465 eV
  Excitation energy:                                               1.079444 eV
  Excitation energy:                                               0.500654 eV
  Excitation energy:                                               0.241410 eV

                    Orbital Energies (a.u.)
 --------------------------------------------------------------

 Alpha MOs
 -- Occupied --
-11.2352 -11.2330  -1.0322  -0.7923  -0.6399  -0.5849  -0.5039  -0.3740

          Ground-State Mulliken Net Atomic Charges

     Atom                 Charge (a.u.)
  ----------------------------------------
      1 H                     0.048942
      2 C                    -0.094574
      3 H                     0.048117
      4 C                    -0.092541
      5 H                     0.045139
      6 H                     0.044916
  ----------------------------------------
  Sum of atomic charges =     0.000000

                    Cartesian Multipole Moments
 -----------------------------------------------------------------
    Charge (ESU x 10^10)
                -0.0000
    Dipole Moment (Debye)
         X      -0.0121      Y       0.0093      Z      -0.0005
       Tot       0.0153
    Quadrupole Moments (Debye-Ang)
        XX     -12.1260     XY      -0.1421     YY     -12.2942
        XZ       0.1560     YZ       0.1876     ZZ     -15.5273

 Total job time:  71.03s(wall), 244.30s(cpu)
        *  Thank you very much for using Q-Chem.  Have a nice day.  *
