 Q-Chem 5.4 (devel), Q-Chem, Inc., Pleasanton, CA (2021)
 Q-Chem 5.4.1 for Intel X86 EM64T Linux

User input:
--------------------------------------------------------------
$comment
generated from CCJob.Templates
$end

$rem
sym_ignore = true
method = adc(2)
ee_states = 10
basis = cc-pVDZ
mem_static = 1024
mem_total = 40000
adc_davidson_maxiter = 900
adc_davidson_conv = 6
adc_print = 3
adc_prop_es = true
adc_prop_es2es = true
adc_prop_tpa = true
molden_format = True
state_analysis = true
print_orbitals = 15
gen_scfman = false
fde_export_density = true
fde_details = 3
$end

$molecule
0 1
H -0.0348278765 -0.2442097827 0.0636489606
C -1.0765972949 -0.5242748755 -0.0023551776
H -1.313264467 -1.5767591607 -0.0757276926
C -2.043634118 0.3926884087 0.0061254933
H -1.8137616575 1.4459188338 0.0804456828
H -3.045977293 0.114931858 -0.0593381042
$end
--------------------------------------------------------------

             Standard Nuclear Orientation (Angstroms)
    I     Atom           X                Y                Z
 ----------------------------------------------------------------
    1      H      -0.0348278765    -0.2442097827     0.0636489606
    2      C      -1.0765972949    -0.5242748755    -0.0023551776
    3      H      -1.3132644670    -1.5767591607    -0.0757276926
    4      C      -2.0436341180     0.3926884087     0.0061254933
    5      H      -1.8137616575     1.4459188338     0.0804456828
    6      H      -3.0459772930     0.1149318580    -0.0593381042
 ----------------------------------------------------------------

   11     -78.0386082751      6.21E-09 Convergence criterion met
 Total energy in the final basis set = -78.03860828
  Excited state 1 (singlet, A)                                     [converged]
  Term symbol:  2 (1) A                                     R^2 =  3.82593e-13
  Excitation energy:                                               8.735521 eV
  Excited state 2 (singlet, A)                                     [converged]
  Term symbol:  3 (1) A                                     R^2 =  6.11226e-13
  Excitation energy:                                               9.109787 eV
  Excited state 3 (singlet, A)                                     [converged]
  Term symbol:  4 (1) A                                     R^2 =  2.52427e-13
  Excitation energy:                                               9.196550 eV
  Excited state 4 (singlet, A)                                     [converged]
  Term symbol:  5 (1) A                                     R^2 =  1.39070e-13
  Excitation energy:                                               9.891102 eV
  Excited state 5 (singlet, A)                                     [converged]
  Term symbol:  6 (1) A                                     R^2 =  2.58310e-13
  Excitation energy:                                              10.244067 eV
  Excited state 6 (singlet, A)                                     [converged]
  Term symbol:  7 (1) A                                     R^2 =  4.48363e-13
  Excitation energy:                                              10.561389 eV
  Excited state 7 (singlet, A)                                     [converged]
  Term symbol:  8 (1) A                                     R^2 =  1.03242e-09
  Excitation energy:                                              11.640787 eV
  Excited state 8 (singlet, A)                                     [converged]
  Term symbol:  9 (1) A                                     R^2 =  2.45775e-12
  Excitation energy:                                              12.211790 eV
  Excited state 9 (singlet, A)                                     [converged]
  Term symbol:  10 (1) A                                    R^2 =  3.85809e-11
  Excitation energy:                                              12.461659 eV
  Excited state 10 (singlet, A)                                     [converged]
  Term symbol:  11 (1) A                                    R^2 =  9.26249e-07
  Excitation energy:                                              12.745625 eV
  Excitation energy:                                               0.374266 eV
  Excitation energy:                                               0.461029 eV
  Excitation energy:                                               0.086763 eV
  Excitation energy:                                               1.155581 eV
  Excitation energy:                                               0.781315 eV
  Excitation energy:                                               0.694552 eV
  Excitation energy:                                               1.508546 eV
  Excitation energy:                                               1.134280 eV
  Excitation energy:                                               1.047517 eV
  Excitation energy:                                               0.352965 eV
  Excitation energy:                                               1.825868 eV
  Excitation energy:                                               1.451602 eV
  Excitation energy:                                               1.364839 eV
  Excitation energy:                                               0.670287 eV
  Excitation energy:                                               0.317322 eV
  Excitation energy:                                               2.905267 eV
  Excitation energy:                                               2.531000 eV
  Excitation energy:                                               2.444237 eV
  Excitation energy:                                               1.749686 eV
  Excitation energy:                                               1.396720 eV
  Excitation energy:                                               1.079398 eV
  Excitation energy:                                               3.476270 eV
  Excitation energy:                                               3.102003 eV
  Excitation energy:                                               3.015240 eV
  Excitation energy:                                               2.320689 eV
  Excitation energy:                                               1.967724 eV
  Excitation energy:                                               1.650401 eV
  Excitation energy:                                               0.571003 eV
  Excitation energy:                                               3.726138 eV
  Excitation energy:                                               3.351872 eV
  Excitation energy:                                               3.265109 eV
  Excitation energy:                                               2.570557 eV
  Excitation energy:                                               2.217592 eV
  Excitation energy:                                               1.900270 eV
  Excitation energy:                                               0.820872 eV
  Excitation energy:                                               0.249869 eV
  Excitation energy:                                               4.010104 eV
  Excitation energy:                                               3.635838 eV
  Excitation energy:                                               3.549075 eV
  Excitation energy:                                               2.854523 eV
  Excitation energy:                                               2.501558 eV
  Excitation energy:                                               2.184236 eV
  Excitation energy:                                               1.104837 eV
  Excitation energy:                                               0.533834 eV
  Excitation energy:                                               0.283966 eV

                    Orbital Energies (a.u.)
 --------------------------------------------------------------

 Alpha MOs
 -- Occupied --
-11.2340 -11.2297  -1.0339  -0.7935  -0.6448  -0.5825  -0.5077  -0.3737

          Ground-State Mulliken Net Atomic Charges

     Atom                 Charge (a.u.)
  ----------------------------------------
      1 H                     0.047382
      2 C                    -0.101686
      3 H                     0.047086
      4 C                    -0.074025
      5 H                     0.046018
      6 H                     0.035225
  ----------------------------------------
  Sum of atomic charges =     0.000000

                    Cartesian Multipole Moments
 -----------------------------------------------------------------
    Charge (ESU x 10^10)
                -0.0000
    Dipole Moment (Debye)
         X      -0.0169      Y      -0.0017      Z      -0.0011
       Tot       0.0170
    Quadrupole Moments (Debye-Ang)
        XX     -12.1674     XY      -0.0475     YY     -12.2437
        XZ       0.1566     YZ       0.1922     ZZ     -15.4924

 Total job time:  70.68s(wall), 246.62s(cpu)
        *  Thank you very much for using Q-Chem.  Have a nice day.  *
