 Q-Chem 5.4 (devel), Q-Chem, Inc., Pleasanton, CA (2021)
 Q-Chem 5.4.1 for Intel X86 EM64T Linux

User input:
--------------------------------------------------------------
$comment
generated from CCJob.Templates
$end

$rem
sym_ignore = true
method = adc(2)
ee_states = 10
basis = cc-pVDZ
mem_static = 1024
mem_total = 40000
adc_davidson_maxiter = 900
adc_davidson_conv = 6
adc_print = 3
adc_prop_es = true
adc_prop_es2es = true
adc_prop_tpa = true
molden_format = True
state_analysis = true
print_orbitals = 15
gen_scfman = false
fde_export_density = true
fde_details = 3
$end

$molecule
0 1
H -0.020931707681955736 -0.2488408096516737 0.06506866130775879
C -1.0775410108493277 -0.5240288633519463 -0.0023375524033926428
H -1.3030952884478313 -1.5925233482690735 -0.077725530496058
C -2.0443894008493313 0.39423286634804894 0.006635447896604693
H -1.8234009636478248 1.4629963292309311 0.08189297600395745
H -3.100519299181954 0.1145477716483263 -0.06085972399223427
$end
--------------------------------------------------------------

             Standard Nuclear Orientation (Angstroms)
    I     Atom           X                Y                Z
 ----------------------------------------------------------------
    1      H      -0.0209317077    -0.2488408097     0.0650686613
    2      C      -1.0775410108    -0.5240288634    -0.0023375524
    3      H      -1.3030952884    -1.5925233483    -0.0777255305
    4      C      -2.0443894008     0.3942328663     0.0066354479
    5      H      -1.8234009636     1.4629963292     0.0818929760
    6      H      -3.1005192992     0.1145477716    -0.0608597240
 ----------------------------------------------------------------

   10     -78.0396506666      3.51E-09 Convergence criterion met
 Total energy in the final basis set = -78.03965067
  Excited state 1 (singlet, A)                                     [converged]
  Term symbol:  2 (1) A                                     R^2 =  1.96265e-10
  Excitation energy:                                               8.731816 eV
  Excited state 2 (singlet, A)                                     [converged]
  Term symbol:  3 (1) A                                     R^2 =  2.77854e-11
  Excitation energy:                                               8.952414 eV
  Excited state 3 (singlet, A)                                     [converged]
  Term symbol:  4 (1) A                                     R^2 =  2.45670e-11
  Excitation energy:                                               9.141617 eV
  Excited state 4 (singlet, A)                                     [converged]
  Term symbol:  5 (1) A                                     R^2 =  2.64199e-11
  Excitation energy:                                               9.738285 eV
  Excited state 5 (singlet, A)                                     [converged]
  Term symbol:  6 (1) A                                     R^2 =  5.25994e-11
  Excitation energy:                                              10.158458 eV
  Excited state 6 (singlet, A)                                     [converged]
  Term symbol:  7 (1) A                                     R^2 =  4.06367e-10
  Excitation energy:                                              10.520843 eV
  Excited state 7 (singlet, A)                                     [converged]
  Term symbol:  8 (1) A                                     R^2 =  9.28206e-07
  Excitation energy:                                              11.433773 eV
  Excited state 8 (singlet, A)                                     [converged]
  Term symbol:  9 (1) A                                     R^2 =  4.17652e-08
  Excitation energy:                                              12.068288 eV
  Excited state 9 (singlet, A)                                     [converged]
  Term symbol:  10 (1) A                                    R^2 =  1.02203e-07
  Excitation energy:                                              12.346836 eV
  Excited state 10 (singlet, A)                                     [converged]
  Term symbol:  11 (1) A                                    R^2 =  5.52358e-07
  Excitation energy:                                              12.476781 eV
  Excitation energy:                                               0.220598 eV
  Excitation energy:                                               0.409801 eV
  Excitation energy:                                               0.189203 eV
  Excitation energy:                                               1.006469 eV
  Excitation energy:                                               0.785871 eV
  Excitation energy:                                               0.596669 eV
  Excitation energy:                                               1.426642 eV
  Excitation energy:                                               1.206044 eV
  Excitation energy:                                               1.016841 eV
  Excitation energy:                                               0.420172 eV
  Excitation energy:                                               1.789027 eV
  Excitation energy:                                               1.568429 eV
  Excitation energy:                                               1.379227 eV
  Excitation energy:                                               0.782558 eV
  Excitation energy:                                               0.362385 eV
  Excitation energy:                                               2.701957 eV
  Excitation energy:                                               2.481359 eV
  Excitation energy:                                               2.292157 eV
  Excitation energy:                                               1.695488 eV
  Excitation energy:                                               1.275315 eV
  Excitation energy:                                               0.912930 eV
  Excitation energy:                                               3.336472 eV
  Excitation energy:                                               3.115874 eV
  Excitation energy:                                               2.926672 eV
  Excitation energy:                                               2.330003 eV
  Excitation energy:                                               1.909831 eV
  Excitation energy:                                               1.547445 eV
  Excitation energy:                                               0.634515 eV
  Excitation energy:                                               3.615020 eV
  Excitation energy:                                               3.394422 eV
  Excitation energy:                                               3.205219 eV
  Excitation energy:                                               2.608550 eV
  Excitation energy:                                               2.188378 eV
  Excitation energy:                                               1.825993 eV
  Excitation energy:                                               0.913063 eV
  Excitation energy:                                               0.278547 eV
  Excitation energy:                                               3.744965 eV
  Excitation energy:                                               3.524367 eV
  Excitation energy:                                               3.335165 eV
  Excitation energy:                                               2.738496 eV
  Excitation energy:                                               2.318323 eV
  Excitation energy:                                               1.955938 eV
  Excitation energy:                                               1.043008 eV
  Excitation energy:                                               0.408493 eV
  Excitation energy:                                               0.129945 eV

                    Orbital Energies (a.u.)
 --------------------------------------------------------------

 Alpha MOs
 -- Occupied --
-11.2388 -11.2372  -1.0299  -0.7859  -0.6350  -0.5823  -0.4995  -0.3744

          Ground-State Mulliken Net Atomic Charges

     Atom                 Charge (a.u.)
  ----------------------------------------
      1 H                     0.052372
      2 C                    -0.104746
      3 H                     0.052379
      4 C                    -0.104754
      5 H                     0.052381
      6 H                     0.052368
  ----------------------------------------
  Sum of atomic charges =     0.000000

                    Cartesian Multipole Moments
 -----------------------------------------------------------------
    Charge (ESU x 10^10)
                -0.0000
    Dipole Moment (Debye)
         X       0.0001      Y       0.0002      Z       0.0002
       Tot       0.0003
    Quadrupole Moments (Debye-Ang)
        XX     -12.2459     XY      -0.1055     YY     -12.2595
        XZ       0.1558     YZ       0.1986     ZZ     -15.6098

 Total job time:  122.68s(wall), 372.03s(cpu)
        *  Thank you very much for using Q-Chem.  Have a nice day.  *
