 Q-Chem 5.4 (devel), Q-Chem, Inc., Pleasanton, CA (2021)
 Q-Chem 5.4.1 for Intel X86 EM64T Linux

User input:
--------------------------------------------------------------
$comment
generated from CCJob.Templates
$end

$rem
sym_ignore = true
method = adc(2)
ee_states = 10
basis = cc-pVDZ
mem_static = 1024
mem_total = 40000
adc_davidson_maxiter = 900
adc_davidson_conv = 6
adc_print = 3
adc_prop_es = true
adc_prop_es2es = true
adc_prop_tpa = true
molden_format = True
state_analysis = true
print_orbitals = 15
gen_scfman = false
fde_export_density = true
fde_details = 3
$end

$molecule
0 1
H -0.0348278765 -0.2442097827 0.0636489606
C -1.0765972949 -0.5242748755 -0.0023551776
H -1.313264467 -1.5767591607 -0.0657276926
C -2.043634118 0.3926884087 0.0061254933
H -1.8137616575 1.4459188338 0.0804456828
H -3.085977293 0.114931858 -0.0593381042
$end
--------------------------------------------------------------

             Standard Nuclear Orientation (Angstroms)
    I     Atom           X                Y                Z
 ----------------------------------------------------------------
    1      H      -0.0348278765    -0.2442097827     0.0636489606
    2      C      -1.0765972949    -0.5242748755    -0.0023551776
    3      H      -1.3132644670    -1.5767591607    -0.0657276926
    4      C      -2.0436341180     0.3926884087     0.0061254933
    5      H      -1.8137616575     1.4459188338     0.0804456828
    6      H      -3.0859772930     0.1149318580    -0.0593381042
 ----------------------------------------------------------------

   10     -78.0399203282      9.55E-09 Convergence criterion met
 Total energy in the final basis set = -78.03992033
  Excited state 1 (singlet, A)                                     [converged]
  Term symbol:  2 (1) A                                     R^2 =  4.77451e-14
  Excitation energy:                                               8.736301 eV
  Excited state 2 (singlet, A)                                     [converged]
  Term symbol:  3 (1) A                                     R^2 =  5.71321e-14
  Excitation energy:                                               9.055378 eV
  Excited state 3 (singlet, A)                                     [converged]
  Term symbol:  4 (1) A                                     R^2 =  7.26359e-14
  Excitation energy:                                               9.171522 eV
  Excited state 4 (singlet, A)                                     [converged]
  Term symbol:  5 (1) A                                     R^2 =  1.45338e-13
  Excitation energy:                                               9.834381 eV
  Excited state 5 (singlet, A)                                     [converged]
  Term symbol:  6 (1) A                                     R^2 =  3.96535e-13
  Excitation energy:                                              10.212794 eV
  Excited state 6 (singlet, A)                                     [converged]
  Term symbol:  7 (1) A                                     R^2 =  2.93087e-13
  Excitation energy:                                              10.536291 eV
  Excited state 7 (singlet, A)                                     [converged]
  Term symbol:  8 (1) A                                     R^2 =  2.39871e-11
  Excitation energy:                                              11.558367 eV
  Excited state 8 (singlet, A)                                     [converged]
  Term symbol:  9 (1) A                                     R^2 =  4.29942e-10
  Excitation energy:                                              12.165710 eV
  Excited state 9 (singlet, A)                                     [converged]
  Term symbol:  10 (1) A                                    R^2 =  6.27948e-09
  Excitation energy:                                              12.417406 eV
  Excited state 10 (singlet, A)                                     [converged]
  Term symbol:  11 (1) A                                    R^2 =  9.00090e-07
  Excitation energy:                                              12.647376 eV
  Excitation energy:                                               0.319077 eV
  Excitation energy:                                               0.435221 eV
  Excitation energy:                                               0.116144 eV
  Excitation energy:                                               1.098080 eV
  Excitation energy:                                               0.779003 eV
  Excitation energy:                                               0.662859 eV
  Excitation energy:                                               1.476493 eV
  Excitation energy:                                               1.157416 eV
  Excitation energy:                                               1.041272 eV
  Excitation energy:                                               0.378413 eV
  Excitation energy:                                               1.799990 eV
  Excitation energy:                                               1.480913 eV
  Excitation energy:                                               1.364769 eV
  Excitation energy:                                               0.701910 eV
  Excitation energy:                                               0.323497 eV
  Excitation energy:                                               2.822066 eV
  Excitation energy:                                               2.502989 eV
  Excitation energy:                                               2.386845 eV
  Excitation energy:                                               1.723986 eV
  Excitation energy:                                               1.345573 eV
  Excitation energy:                                               1.022076 eV
  Excitation energy:                                               3.429409 eV
  Excitation energy:                                               3.110332 eV
  Excitation energy:                                               2.994188 eV
  Excitation energy:                                               2.331329 eV
  Excitation energy:                                               1.952916 eV
  Excitation energy:                                               1.629420 eV
  Excitation energy:                                               0.607343 eV
  Excitation energy:                                               3.681106 eV
  Excitation energy:                                               3.362028 eV
  Excitation energy:                                               3.245884 eV
  Excitation energy:                                               2.583026 eV
  Excitation energy:                                               2.204613 eV
  Excitation energy:                                               1.881116 eV
  Excitation energy:                                               0.859039 eV
  Excitation energy:                                               0.251696 eV
  Excitation energy:                                               3.911076 eV
  Excitation energy:                                               3.591998 eV
  Excitation energy:                                               3.475854 eV
  Excitation energy:                                               2.812996 eV
  Excitation energy:                                               2.434583 eV
  Excitation energy:                                               2.111086 eV
  Excitation energy:                                               1.089009 eV
  Excitation energy:                                               0.481666 eV
  Excitation energy:                                               0.229970 eV

                    Orbital Energies (a.u.)
 --------------------------------------------------------------

 Alpha MOs
 -- Occupied --
-11.2351 -11.2334  -1.0323  -0.7899  -0.6412  -0.5820  -0.5046  -0.3740

          Ground-State Mulliken Net Atomic Charges

     Atom                 Charge (a.u.)
  ----------------------------------------
      1 H                     0.048080
      2 C                    -0.094832
      3 H                     0.047483
      4 C                    -0.095587
      5 H                     0.047194
      6 H                     0.047662
  ----------------------------------------
  Sum of atomic charges =     0.000000

                    Cartesian Multipole Moments
 -----------------------------------------------------------------
    Charge (ESU x 10^10)
                 0.0000
    Dipole Moment (Debye)
         X      -0.0021      Y       0.0010      Z       0.0081
       Tot       0.0084
    Quadrupole Moments (Debye-Ang)
        XX     -12.2124     XY      -0.0578     YY     -12.2660
        XZ       0.1423     YZ       0.1802     ZZ     -15.5416

 Total job time:  69.82s(wall), 187.44s(cpu)
        *  Thank you very much for using Q-Chem.  Have a nice day.  *
