 Q-Chem 5.4 (devel), Q-Chem, Inc., Pleasanton, CA (2021)
 Q-Chem 5.4.1 for Intel X86 EM64T Linux

User input:
--------------------------------------------------------------
$comment
generated from CCJob.Templates
$end

$rem
sym_ignore = true
method = adc(2)
ee_states = 10
basis = cc-pVDZ
mem_static = 1024
mem_total = 40000
adc_davidson_maxiter = 900
adc_davidson_conv = 6
adc_print = 3
adc_prop_es = true
adc_prop_es2es = true
adc_prop_tpa = true
molden_format = True
state_analysis = true
print_orbitals = 15
gen_scfman = false
fde_export_density = true
fde_details = 3
$end

$molecule
0 1
H -0.022162163518044266 -0.2451125221483263 0.0651851492922412
C -1.078281602750672 -0.5248087672480537 -0.0023884883966073574
H -1.2993093129521687 -1.5935603961309264 -0.07766634650394201
C -2.045130040750669 0.39345289045195103 0.006584471903395307
H -1.819614892152175 1.4619593533690687 0.08195239199604254
H -3.101749731018046 0.11827605915167369 -0.060743132007765724
$end
--------------------------------------------------------------

             Standard Nuclear Orientation (Angstroms)
    I     Atom           X                Y                Z
 ----------------------------------------------------------------
    1      H      -0.0221621635    -0.2451125221     0.0651851493
    2      C      -1.0782816028    -0.5248087672    -0.0023884884
    3      H      -1.2993093130    -1.5935603961    -0.0776663465
    4      C      -2.0451300408     0.3934528905     0.0065844719
    5      H      -1.8196148922     1.4619593534     0.0819523920
    6      H      -3.1017497310     0.1182760592    -0.0607431320
 ----------------------------------------------------------------

   10     -78.0396506785      4.10E-09 Convergence criterion met
 Total energy in the final basis set = -78.03965068
  Excited state 1 (singlet, A)                                     [converged]
  Term symbol:  2 (1) A                                     R^2 =  7.11714e-11
  Excitation energy:                                               8.731816 eV
  Excited state 2 (singlet, A)                                     [converged]
  Term symbol:  3 (1) A                                     R^2 =  6.42010e-12
  Excitation energy:                                               8.952415 eV
  Excited state 3 (singlet, A)                                     [converged]
  Term symbol:  4 (1) A                                     R^2 =  1.66390e-11
  Excitation energy:                                               9.141617 eV
  Excited state 4 (singlet, A)                                     [converged]
  Term symbol:  5 (1) A                                     R^2 =  7.59278e-12
  Excitation energy:                                               9.738285 eV
  Excited state 5 (singlet, A)                                     [converged]
  Term symbol:  6 (1) A                                     R^2 =  2.74859e-11
  Excitation energy:                                              10.158458 eV
  Excited state 6 (singlet, A)                                     [converged]
  Term symbol:  7 (1) A                                     R^2 =  2.15062e-10
  Excitation energy:                                              10.520843 eV
  Excited state 7 (singlet, A)                                     [converged]
  Term symbol:  8 (1) A                                     R^2 =  5.99602e-07
  Excitation energy:                                              11.433774 eV
  Excited state 8 (singlet, A)                                     [converged]
  Term symbol:  9 (1) A                                     R^2 =  2.42526e-08
  Excitation energy:                                              12.068288 eV
  Excited state 9 (singlet, A)                                     [converged]
  Term symbol:  10 (1) A                                    R^2 =  7.68216e-08
  Excitation energy:                                              12.346836 eV
  Excited state 10 (singlet, A)                                     [converged]
  Term symbol:  11 (1) A                                    R^2 =  3.32341e-07
  Excitation energy:                                              12.476781 eV
  Excitation energy:                                               0.220598 eV
  Excitation energy:                                               0.409801 eV
  Excitation energy:                                               0.189202 eV
  Excitation energy:                                               1.006469 eV
  Excitation energy:                                               0.785871 eV
  Excitation energy:                                               0.596668 eV
  Excitation energy:                                               1.426642 eV
  Excitation energy:                                               1.206043 eV
  Excitation energy:                                               1.016841 eV
  Excitation energy:                                               0.420173 eV
  Excitation energy:                                               1.789027 eV
  Excitation energy:                                               1.568429 eV
  Excitation energy:                                               1.379226 eV
  Excitation energy:                                               0.782558 eV
  Excitation energy:                                               0.362385 eV
  Excitation energy:                                               2.701958 eV
  Excitation energy:                                               2.481359 eV
  Excitation energy:                                               2.292157 eV
  Excitation energy:                                               1.695489 eV
  Excitation energy:                                               1.275316 eV
  Excitation energy:                                               0.912931 eV
  Excitation energy:                                               3.336472 eV
  Excitation energy:                                               3.115874 eV
  Excitation energy:                                               2.926671 eV
  Excitation energy:                                               2.330003 eV
  Excitation energy:                                               1.909830 eV
  Excitation energy:                                               1.547445 eV
  Excitation energy:                                               0.634515 eV
  Excitation energy:                                               3.615020 eV
  Excitation energy:                                               3.394421 eV
  Excitation energy:                                               3.205219 eV
  Excitation energy:                                               2.608551 eV
  Excitation energy:                                               2.188378 eV
  Excitation energy:                                               1.825993 eV
  Excitation energy:                                               0.913062 eV
  Excitation energy:                                               0.278547 eV
  Excitation energy:                                               3.744965 eV
  Excitation energy:                                               3.524367 eV
  Excitation energy:                                               3.335164 eV
  Excitation energy:                                               2.738496 eV
  Excitation energy:                                               2.318323 eV
  Excitation energy:                                               1.955938 eV
  Excitation energy:                                               1.043007 eV
  Excitation energy:                                               0.408493 eV
  Excitation energy:                                               0.129945 eV

                    Orbital Energies (a.u.)
 --------------------------------------------------------------

 Alpha MOs
 -- Occupied --
-11.2388 -11.2372  -1.0299  -0.7859  -0.6350  -0.5823  -0.4995  -0.3744

          Ground-State Mulliken Net Atomic Charges

     Atom                 Charge (a.u.)
  ----------------------------------------
      1 H                     0.052370
      2 C                    -0.104746
      3 H                     0.052382
      4 C                    -0.104754
      5 H                     0.052378
      6 H                     0.052370
  ----------------------------------------
  Sum of atomic charges =     0.000000

                    Cartesian Multipole Moments
 -----------------------------------------------------------------
    Charge (ESU x 10^10)
                -0.0000
    Dipole Moment (Debye)
         X      -0.0002      Y      -0.0002      Z      -0.0001
       Tot       0.0002
    Quadrupole Moments (Debye-Ang)
        XX     -12.2450     XY      -0.1050     YY     -12.2594
        XZ       0.1562     YZ       0.1986     ZZ     -15.6098

 Total job time:  121.07s(wall), 364.14s(cpu)
        *  Thank you very much for using Q-Chem.  Have a nice day.  *
