 Q-Chem 5.4 (devel), Q-Chem, Inc., Pleasanton, CA (2021)
 Q-Chem 5.4.1 for Intel X86 EM64T Linux

User input:
--------------------------------------------------------------
$comment
generated from CCJob.Templates
$end

$rem
sym_ignore = true
method = adc(2)
ee_states = 10
basis = cc-pVDZ
mem_static = 1024
mem_total = 40000
adc_davidson_maxiter = 900
adc_davidson_conv = 6
adc_print = 3
adc_prop_es = true
adc_prop_es2es = true
adc_prop_tpa = true
molden_format = True
state_analysis = true
print_orbitals = 15
gen_scfman = false
fde_export_density = true
fde_details = 3
$end

$molecule
0 1
H -0.0348278765 -0.2442097827 0.0636489606
C -1.0765972949 -0.5242748755 -0.0023551776
H -1.313264467 -1.5767591607 -0.0757276926
C -2.043634118 0.3926884087 0.0061254933
H -1.8137616575 1.4459188338 0.0404456828
H -3.085977293 0.114931858 -0.0593381042
$end
--------------------------------------------------------------

             Standard Nuclear Orientation (Angstroms)
    I     Atom           X                Y                Z
 ----------------------------------------------------------------
    1      H      -0.0348278765    -0.2442097827     0.0636489606
    2      C      -1.0765972949    -0.5242748755    -0.0023551776
    3      H      -1.3132644670    -1.5767591607    -0.0757276926
    4      C      -2.0436341180     0.3926884087     0.0061254933
    5      H      -1.8137616575     1.4459188338     0.0404456828
    6      H      -3.0859772930     0.1149318580    -0.0593381042
 ----------------------------------------------------------------

   11     -78.0398405232      5.98E-09 Convergence criterion met
 Total energy in the final basis set = -78.03984052
  Excited state 1 (singlet, A)                                     [converged]
  Term symbol:  2 (1) A                                     R^2 =  1.59111e-13
  Excitation energy:                                               8.726870 eV
  Excited state 2 (singlet, A)                                     [converged]
  Term symbol:  3 (1) A                                     R^2 =  2.72761e-13
  Excitation energy:                                               9.060367 eV
  Excited state 3 (singlet, A)                                     [converged]
  Term symbol:  4 (1) A                                     R^2 =  1.33993e-13
  Excitation energy:                                               9.172660 eV
  Excited state 4 (singlet, A)                                     [converged]
  Term symbol:  5 (1) A                                     R^2 =  3.36291e-13
  Excitation energy:                                               9.837053 eV
  Excited state 5 (singlet, A)                                     [converged]
  Term symbol:  6 (1) A                                     R^2 =  3.76813e-13
  Excitation energy:                                              10.213349 eV
  Excited state 6 (singlet, A)                                     [converged]
  Term symbol:  7 (1) A                                     R^2 =  5.61247e-13
  Excitation energy:                                              10.536367 eV
  Excited state 7 (singlet, A)                                     [converged]
  Term symbol:  8 (1) A                                     R^2 =  7.75058e-11
  Excitation energy:                                              11.561929 eV
  Excited state 8 (singlet, A)                                     [converged]
  Term symbol:  9 (1) A                                     R^2 =  3.06516e-09
  Excitation energy:                                              12.164812 eV
  Excited state 9 (singlet, A)                                     [converged]
  Term symbol:  10 (1) A                                    R^2 =  2.84681e-08
  Excitation energy:                                              12.416393 eV
  Excited state 10 (singlet, A)                                     [converged]
  Term symbol:  11 (1) A                                    R^2 =  7.20705e-07
  Excitation energy:                                              12.651260 eV
  Excitation energy:                                               0.333497 eV
  Excitation energy:                                               0.445789 eV
  Excitation energy:                                               0.112292 eV
  Excitation energy:                                               1.110182 eV
  Excitation energy:                                               0.776685 eV
  Excitation energy:                                               0.664393 eV
  Excitation energy:                                               1.486479 eV
  Excitation energy:                                               1.152982 eV
  Excitation energy:                                               1.040689 eV
  Excitation energy:                                               0.376296 eV
  Excitation energy:                                               1.809497 eV
  Excitation energy:                                               1.476000 eV
  Excitation energy:                                               1.363707 eV
  Excitation energy:                                               0.699315 eV
  Excitation energy:                                               0.323018 eV
  Excitation energy:                                               2.835059 eV
  Excitation energy:                                               2.501562 eV
  Excitation energy:                                               2.389269 eV
  Excitation energy:                                               1.724876 eV
  Excitation energy:                                               1.348580 eV
  Excitation energy:                                               1.025562 eV
  Excitation energy:                                               3.437942 eV
  Excitation energy:                                               3.104445 eV
  Excitation energy:                                               2.992153 eV
  Excitation energy:                                               2.327760 eV
  Excitation energy:                                               1.951463 eV
  Excitation energy:                                               1.628445 eV
  Excitation energy:                                               0.602883 eV
  Excitation energy:                                               3.689523 eV
  Excitation energy:                                               3.356026 eV
  Excitation energy:                                               3.243733 eV
  Excitation energy:                                               2.579340 eV
  Excitation energy:                                               2.203044 eV
  Excitation energy:                                               1.880026 eV
  Excitation energy:                                               0.854464 eV
  Excitation energy:                                               0.251581 eV
  Excitation energy:                                               3.924390 eV
  Excitation energy:                                               3.590893 eV
  Excitation energy:                                               3.478601 eV
  Excitation energy:                                               2.814208 eV
  Excitation energy:                                               2.437911 eV
  Excitation energy:                                               2.114893 eV
  Excitation energy:                                               1.089331 eV
  Excitation energy:                                               0.486448 eV
  Excitation energy:                                               0.234867 eV

                    Orbital Energies (a.u.)
 --------------------------------------------------------------

 Alpha MOs
 -- Occupied --
-11.2350 -11.2333  -1.0324  -0.7900  -0.6412  -0.5821  -0.5047  -0.3740

          Ground-State Mulliken Net Atomic Charges

     Atom                 Charge (a.u.)
  ----------------------------------------
      1 H                     0.048136
      2 C                    -0.095332
      3 H                     0.047682
      4 C                    -0.094652
      5 H                     0.046655
      6 H                     0.047511
  ----------------------------------------
  Sum of atomic charges =     0.000000

                    Cartesian Multipole Moments
 -----------------------------------------------------------------
    Charge (ESU x 10^10)
                -0.0000
    Dipole Moment (Debye)
         X      -0.0003      Y       0.0037      Z      -0.0266
       Tot       0.0269
    Quadrupole Moments (Debye-Ang)
        XX     -12.2184     XY      -0.0627     YY     -12.2624
        XZ       0.1981     YZ       0.1446     ZZ     -15.5425

 Total job time:  89.75s(wall), 299.04s(cpu)
        *  Thank you very much for using Q-Chem.  Have a nice day.  *
