 Q-Chem 5.4 (devel), Q-Chem, Inc., Pleasanton, CA (2021)
 Q-Chem 5.4.1 for Intel X86 EM64T Linux

User input:
--------------------------------------------------------------
$comment
generated from CCJob.Templates
$end

$rem
sym_ignore = true
method = adc(2)
ee_states = 10
basis = cc-pVDZ
mem_static = 1024
mem_total = 40000
adc_davidson_maxiter = 900
adc_davidson_conv = 6
adc_print = 3
adc_prop_es = true
adc_prop_es2es = true
adc_prop_tpa = true
molden_format = True
state_analysis = true
print_orbitals = 15
gen_scfman = false
fde_export_density = true
fde_details = 3
$end

$molecule
0 1
H -0.0348278765 -0.2442097827 0.0536489606
C -1.0765972949 -0.5242748755 -0.0023551776
H -1.313264467 -1.5767591607 -0.0757276926
C -2.043634118 0.3926884087 0.0061254933
H -1.8137616575 1.4459188338 0.0804456828
H -3.085977293 0.114931858 -0.0593381042
$end
--------------------------------------------------------------

             Standard Nuclear Orientation (Angstroms)
    I     Atom           X                Y                Z
 ----------------------------------------------------------------
    1      H      -0.0348278765    -0.2442097827     0.0536489606
    2      C      -1.0765972949    -0.5242748755    -0.0023551776
    3      H      -1.3132644670    -1.5767591607    -0.0757276926
    4      C      -2.0436341180     0.3926884087     0.0061254933
    5      H      -1.8137616575     1.4459188338     0.0804456828
    6      H      -3.0859772930     0.1149318580    -0.0593381042
 ----------------------------------------------------------------

   10     -78.0399207211      9.72E-09 Convergence criterion met
 Total energy in the final basis set = -78.03992072
  Excited state 1 (singlet, A)                                     [converged]
  Term symbol:  2 (1) A                                     R^2 =  2.75403e-13
  Excitation energy:                                               8.736338 eV
  Excited state 2 (singlet, A)                                     [converged]
  Term symbol:  3 (1) A                                     R^2 =  1.51675e-13
  Excitation energy:                                               9.055106 eV
  Excited state 3 (singlet, A)                                     [converged]
  Term symbol:  4 (1) A                                     R^2 =  1.67301e-13
  Excitation energy:                                               9.171535 eV
  Excited state 4 (singlet, A)                                     [converged]
  Term symbol:  5 (1) A                                     R^2 =  3.65364e-13
  Excitation energy:                                               9.834333 eV
  Excited state 5 (singlet, A)                                     [converged]
  Term symbol:  6 (1) A                                     R^2 =  4.01238e-13
  Excitation energy:                                              10.212791 eV
  Excited state 6 (singlet, A)                                     [converged]
  Term symbol:  7 (1) A                                     R^2 =  3.93281e-13
  Excitation energy:                                              10.536323 eV
  Excited state 7 (singlet, A)                                     [converged]
  Term symbol:  8 (1) A                                     R^2 =  5.28577e-10
  Excitation energy:                                              11.558144 eV
  Excited state 8 (singlet, A)                                     [converged]
  Term symbol:  9 (1) A                                     R^2 =  4.25043e-10
  Excitation energy:                                              12.165552 eV
  Excited state 9 (singlet, A)                                     [converged]
  Term symbol:  10 (1) A                                    R^2 =  5.15402e-09
  Excitation energy:                                              12.417266 eV
  Excited state 10 (singlet, A)                                     [converged]
  Term symbol:  11 (1) A                                    R^2 =  5.56477e-07
  Excitation energy:                                              12.647145 eV
  Excitation energy:                                               0.318768 eV
  Excitation energy:                                               0.435197 eV
  Excitation energy:                                               0.116429 eV
  Excitation energy:                                               1.097995 eV
  Excitation energy:                                               0.779227 eV
  Excitation energy:                                               0.662798 eV
  Excitation energy:                                               1.476453 eV
  Excitation energy:                                               1.157686 eV
  Excitation energy:                                               1.041256 eV
  Excitation energy:                                               0.378459 eV
  Excitation energy:                                               1.799985 eV
  Excitation energy:                                               1.481217 eV
  Excitation energy:                                               1.364788 eV
  Excitation energy:                                               0.701990 eV
  Excitation energy:                                               0.323532 eV
  Excitation energy:                                               2.821806 eV
  Excitation energy:                                               2.503038 eV
  Excitation energy:                                               2.386609 eV
  Excitation energy:                                               1.723811 eV
  Excitation energy:                                               1.345353 eV
  Excitation energy:                                               1.021821 eV
  Excitation energy:                                               3.429214 eV
  Excitation energy:                                               3.110447 eV
  Excitation energy:                                               2.994017 eV
  Excitation energy:                                               2.331220 eV
  Excitation energy:                                               1.952761 eV
  Excitation energy:                                               1.629229 eV
  Excitation energy:                                               0.607408 eV
  Excitation energy:                                               3.680928 eV
  Excitation energy:                                               3.362161 eV
  Excitation energy:                                               3.245731 eV
  Excitation energy:                                               2.582934 eV
  Excitation energy:                                               2.204475 eV
  Excitation energy:                                               1.880943 eV
  Excitation energy:                                               0.859122 eV
  Excitation energy:                                               0.251714 eV
  Excitation energy:                                               3.910807 eV
  Excitation energy:                                               3.592040 eV
  Excitation energy:                                               3.475610 eV
  Excitation energy:                                               2.812813 eV
  Excitation energy:                                               2.434354 eV
  Excitation energy:                                               2.110822 eV
  Excitation energy:                                               1.089001 eV
  Excitation energy:                                               0.481593 eV
  Excitation energy:                                               0.229879 eV

                    Orbital Energies (a.u.)
 --------------------------------------------------------------

 Alpha MOs
 -- Occupied --
-11.2351 -11.2334  -1.0323  -0.7899  -0.6412  -0.5820  -0.5046  -0.3740

          Ground-State Mulliken Net Atomic Charges

     Atom                 Charge (a.u.)
  ----------------------------------------
      1 H                     0.047961
      2 C                    -0.094870
      3 H                     0.047617
      4 C                    -0.095570
      5 H                     0.047194
      6 H                     0.047668
  ----------------------------------------
  Sum of atomic charges =     0.000000

                    Cartesian Multipole Moments
 -----------------------------------------------------------------
    Charge (ESU x 10^10)
                 0.0000
    Dipole Moment (Debye)
         X      -0.0012      Y       0.0021      Z      -0.0058
       Tot       0.0063
    Quadrupole Moments (Debye-Ang)
        XX     -12.2133     XY      -0.0595     YY     -12.2683
        XZ       0.1508     YZ       0.1937     ZZ     -15.5415

 Total job time:  78.59s(wall), 216.47s(cpu)
        *  Thank you very much for using Q-Chem.  Have a nice day.  *
