 Q-Chem 5.4 (devel), Q-Chem, Inc., Pleasanton, CA (2021)
 Q-Chem 5.4.1 for Intel X86 EM64T Linux

User input:
--------------------------------------------------------------
$comment
generated from CCJob.Templates
$end

$rem
sym_ignore = true
method = adc(2)
ee_states = 10
basis = cc-pVDZ
mem_static = 1024
mem_total = 40000
adc_davidson_maxiter = 900
adc_davidson_conv = 6
adc_print = 3
adc_prop_es = true
adc_prop_es2es = true
adc_prop_tpa = true
molden_format = True
state_analysis = true
print_orbitals = 15
gen_scfman = false
fde_export_density = true
fde_details = 3
$end

$molecule
0 1
H -0.021933603657467386 -0.24673699786438005 0.06538228533795509
C -1.0794173390238295 -0.5226419070359123 -0.0026978124497574678
H -1.3018791888006005 -1.5924524681124015 -0.07813641056546385
C -2.045502112910336 0.3964241827836386 0.006239339844917703
H -1.8214826318962405 1.463151477400117 0.08215872003508015
H -3.1013994671393776 0.11743525155209027 -0.061261236068337596
$end
--------------------------------------------------------------

             Standard Nuclear Orientation (Angstroms)
    I     Atom           X                Y                Z
 ----------------------------------------------------------------
    1      H      -0.0219336037    -0.2467369979     0.0653822853
    2      C      -1.0794173390    -0.5226419070    -0.0026978124
    3      H      -1.3018791888    -1.5924524681    -0.0781364106
    4      C      -2.0455021129     0.3964241828     0.0062393398
    5      H      -1.8214826319     1.4631514774     0.0821587200
    6      H      -3.1013994671     0.1174352516    -0.0612612361
 ----------------------------------------------------------------

   11     -78.0396480471      6.24E-09 Convergence criterion met
 Total energy in the final basis set = -78.03964805
  Excited state 1 (singlet, A)                                     [converged]
  Term symbol:  2 (1) A                                     R^2 =  5.63443e-13
  Excitation energy:                                               8.731812 eV
  Excited state 2 (singlet, A)                                     [converged]
  Term symbol:  3 (1) A                                     R^2 =  4.25650e-13
  Excitation energy:                                               8.952399 eV
  Excited state 3 (singlet, A)                                     [converged]
  Term symbol:  4 (1) A                                     R^2 =  7.55158e-13
  Excitation energy:                                               9.141644 eV
  Excited state 4 (singlet, A)                                     [converged]
  Term symbol:  5 (1) A                                     R^2 =  7.02639e-13
  Excitation energy:                                               9.738247 eV
  Excited state 5 (singlet, A)                                     [converged]
  Term symbol:  6 (1) A                                     R^2 =  6.10898e-13
  Excitation energy:                                              10.158461 eV
  Excited state 6 (singlet, A)                                     [converged]
  Term symbol:  7 (1) A                                     R^2 =  5.87806e-13
  Excitation energy:                                              10.520851 eV
  Excited state 7 (singlet, A)                                     [converged]
  Term symbol:  8 (1) A                                     R^2 =  5.80995e-09
  Excitation energy:                                              11.433774 eV
  Excited state 8 (singlet, A)                                     [converged]
  Term symbol:  9 (1) A                                     R^2 =  1.73141e-09
  Excitation energy:                                              12.068302 eV
  Excited state 9 (singlet, A)                                     [converged]
  Term symbol:  10 (1) A                                    R^2 =  2.09951e-08
  Excitation energy:                                              12.346819 eV
  Excited state 10 (singlet, A)                                     [converged]
  Term symbol:  11 (1) A                                    R^2 =  9.86447e-07
  Excitation energy:                                              12.476750 eV
  Excitation energy:                                               0.220586 eV
  Excitation energy:                                               0.409831 eV
  Excitation energy:                                               0.189245 eV
  Excitation energy:                                               1.006435 eV
  Excitation energy:                                               0.785849 eV
  Excitation energy:                                               0.596604 eV
  Excitation energy:                                               1.426648 eV
  Excitation energy:                                               1.206062 eV
  Excitation energy:                                               1.016817 eV
  Excitation energy:                                               0.420213 eV
  Excitation energy:                                               1.789038 eV
  Excitation energy:                                               1.568452 eV
  Excitation energy:                                               1.379207 eV
  Excitation energy:                                               0.782603 eV
  Excitation energy:                                               0.362390 eV
  Excitation energy:                                               2.701961 eV
  Excitation energy:                                               2.481375 eV
  Excitation energy:                                               2.292130 eV
  Excitation energy:                                               1.695526 eV
  Excitation energy:                                               1.275313 eV
  Excitation energy:                                               0.912923 eV
  Excitation energy:                                               3.336490 eV
  Excitation energy:                                               3.115903 eV
  Excitation energy:                                               2.926659 eV
  Excitation energy:                                               2.330055 eV
  Excitation energy:                                               1.909841 eV
  Excitation energy:                                               1.547451 eV
  Excitation energy:                                               0.634529 eV
  Excitation energy:                                               3.615007 eV
  Excitation energy:                                               3.394421 eV
  Excitation energy:                                               3.205176 eV
  Excitation energy:                                               2.608572 eV
  Excitation energy:                                               2.188358 eV
  Excitation energy:                                               1.825969 eV
  Excitation energy:                                               0.913046 eV
  Excitation energy:                                               0.278517 eV
  Excitation energy:                                               3.744937 eV
  Excitation energy:                                               3.524351 eV
  Excitation energy:                                               3.335106 eV
  Excitation energy:                                               2.738502 eV
  Excitation energy:                                               2.318289 eV
  Excitation energy:                                               1.955899 eV
  Excitation energy:                                               1.042976 eV
  Excitation energy:                                               0.408448 eV
  Excitation energy:                                               0.129930 eV

                    Orbital Energies (a.u.)
 --------------------------------------------------------------

 Alpha MOs
 -- Occupied --
-11.2388 -11.2371  -1.0299  -0.7859  -0.6350  -0.5823  -0.4995  -0.3744

          Ground-State Mulliken Net Atomic Charges

     Atom                 Charge (a.u.)
  ----------------------------------------
      1 H                     0.052433
      2 C                    -0.106085
      3 H                     0.052579
      4 C                    -0.103411
      5 H                     0.052129
      6 H                     0.052354
  ----------------------------------------
  Sum of atomic charges =     0.000000

                    Cartesian Multipole Moments
 -----------------------------------------------------------------
    Charge (ESU x 10^10)
                -0.0000
    Dipole Moment (Debye)
         X       0.0005      Y       0.0003      Z       0.0009
       Tot       0.0011
    Quadrupole Moments (Debye-Ang)
        XX     -12.2509     XY      -0.1061     YY     -12.2560
        XZ       0.1553     YZ       0.1996     ZZ     -15.6096

 Total job time:  145.04s(wall), 435.55s(cpu)
        *  Thank you very much for using Q-Chem.  Have a nice day.  *
