 Q-Chem 5.4 (devel), Q-Chem, Inc., Pleasanton, CA (2021)
 Q-Chem 5.4.1 for Intel X86 EM64T Linux

User input:
--------------------------------------------------------------
$comment
generated from CCJob.Templates
$end

$rem
sym_ignore = true
method = adc(2)
ee_states = 10
basis = cc-pVDZ
mem_static = 1024
mem_total = 40000
adc_davidson_maxiter = 900
adc_davidson_conv = 6
adc_print = 3
adc_prop_es = true
adc_prop_es2es = true
adc_prop_tpa = true
molden_format = True
state_analysis = true
print_orbitals = 15
gen_scfman = false
fde_export_density = true
fde_details = 3
$end

$molecule
0 1
H -0.0348278765 -0.2442097827 0.0636489606
C -1.0765972949 -0.5242748755 -0.0023551776
H -1.313264467 -1.5767591607 -0.0757276926
C -2.043634118 0.3926884087 0.0061254933
H -1.8537616575 1.4459188338 0.0804456828
H -3.085977293 0.114931858 -0.0593381042
$end
--------------------------------------------------------------

             Standard Nuclear Orientation (Angstroms)
    I     Atom           X                Y                Z
 ----------------------------------------------------------------
    1      H      -0.0348278765    -0.2442097827     0.0636489606
    2      C      -1.0765972949    -0.5242748755    -0.0023551776
    3      H      -1.3132644670    -1.5767591607    -0.0757276926
    4      C      -2.0436341180     0.3926884087     0.0061254933
    5      H      -1.8537616575     1.4459188338     0.0804456828
    6      H      -3.0859772930     0.1149318580    -0.0593381042
 ----------------------------------------------------------------

   11     -78.0397547584      7.90E-09 Convergence criterion met
 Total energy in the final basis set = -78.03975476
  Excited state 1 (singlet, A)                                     [converged]
  Term symbol:  2 (1) A                                     R^2 =  4.92022e-14
  Excitation energy:                                               8.733978 eV
  Excited state 2 (singlet, A)                                     [converged]
  Term symbol:  3 (1) A                                     R^2 =  8.73836e-14
  Excitation energy:                                               9.027235 eV
  Excited state 3 (singlet, A)                                     [converged]
  Term symbol:  4 (1) A                                     R^2 =  8.88830e-14
  Excitation energy:                                               9.201830 eV
  Excited state 4 (singlet, A)                                     [converged]
  Term symbol:  5 (1) A                                     R^2 =  7.77946e-14
  Excitation energy:                                               9.845039 eV
  Excited state 5 (singlet, A)                                     [converged]
  Term symbol:  6 (1) A                                     R^2 =  1.30517e-13
  Excitation energy:                                              10.232919 eV
  Excited state 6 (singlet, A)                                     [converged]
  Term symbol:  7 (1) A                                     R^2 =  5.94910e-13
  Excitation energy:                                              10.563000 eV
  Excited state 7 (singlet, A)                                     [converged]
  Term symbol:  8 (1) A                                     R^2 =  8.46929e-12
  Excitation energy:                                              11.563852 eV
  Excited state 8 (singlet, A)                                     [converged]
  Term symbol:  9 (1) A                                     R^2 =  5.10557e-11
  Excitation energy:                                              12.142867 eV
  Excited state 9 (singlet, A)                                     [converged]
  Term symbol:  10 (1) A                                    R^2 =  1.02037e-09
  Excitation energy:                                              12.402848 eV
  Excited state 10 (singlet, A)                                     [converged]
  Term symbol:  11 (1) A                                    R^2 =  6.01605e-07
  Excitation energy:                                              12.642632 eV
  Excitation energy:                                               0.293256 eV
  Excitation energy:                                               0.467852 eV
  Excitation energy:                                               0.174595 eV
  Excitation energy:                                               1.111061 eV
  Excitation energy:                                               0.817805 eV
  Excitation energy:                                               0.643210 eV
  Excitation energy:                                               1.498941 eV
  Excitation energy:                                               1.205684 eV
  Excitation energy:                                               1.031089 eV
  Excitation energy:                                               0.387880 eV
  Excitation energy:                                               1.829021 eV
  Excitation energy:                                               1.535765 eV
  Excitation energy:                                               1.361170 eV
  Excitation energy:                                               0.717960 eV
  Excitation energy:                                               0.330081 eV
  Excitation energy:                                               2.829873 eV
  Excitation energy:                                               2.536617 eV
  Excitation energy:                                               2.362022 eV
  Excitation energy:                                               1.718812 eV
  Excitation energy:                                               1.330932 eV
  Excitation energy:                                               1.000852 eV
  Excitation energy:                                               3.408889 eV
  Excitation energy:                                               3.115633 eV
  Excitation energy:                                               2.941038 eV
  Excitation energy:                                               2.297828 eV
  Excitation energy:                                               1.909948 eV
  Excitation energy:                                               1.579868 eV
  Excitation energy:                                               0.579016 eV
  Excitation energy:                                               3.668870 eV
  Excitation energy:                                               3.375614 eV
  Excitation energy:                                               3.201019 eV
  Excitation energy:                                               2.557809 eV
  Excitation energy:                                               2.169929 eV
  Excitation energy:                                               1.839849 eV
  Excitation energy:                                               0.838997 eV
  Excitation energy:                                               0.259981 eV
  Excitation energy:                                               3.908654 eV
  Excitation energy:                                               3.615398 eV
  Excitation energy:                                               3.440803 eV
  Excitation energy:                                               2.797593 eV
  Excitation energy:                                               2.409713 eV
  Excitation energy:                                               2.079633 eV
  Excitation energy:                                               1.078781 eV
  Excitation energy:                                               0.499765 eV
  Excitation energy:                                               0.239784 eV

                    Orbital Energies (a.u.)
 --------------------------------------------------------------

 Alpha MOs
 -- Occupied --
-11.2352 -11.2332  -1.0322  -0.7921  -0.6398  -0.5848  -0.5039  -0.3740

          Ground-State Mulliken Net Atomic Charges

     Atom                 Charge (a.u.)
  ----------------------------------------
      1 H                     0.048592
      2 C                    -0.094308
      3 H                     0.048522
      4 C                    -0.093476
      5 H                     0.044993
      6 H                     0.045678
  ----------------------------------------
  Sum of atomic charges =     0.000000

                    Cartesian Multipole Moments
 -----------------------------------------------------------------
    Charge (ESU x 10^10)
                -0.0000
    Dipole Moment (Debye)
         X      -0.0099      Y       0.0109      Z       0.0027
       Tot       0.0150
    Quadrupole Moments (Debye-Ang)
        XX     -12.2073     XY      -0.1482     YY     -12.2209
        XZ       0.1441     YZ       0.1942     ZZ     -15.5294

 Total job time:  77.25s(wall), 259.52s(cpu)
        *  Thank you very much for using Q-Chem.  Have a nice day.  *
