 Q-Chem 5.4 (devel), Q-Chem, Inc., Pleasanton, CA (2021)
 Q-Chem 5.4.1 for Intel X86 EM64T Linux

User input:
--------------------------------------------------------------
$comment
generated from CCJob.Templates
$end

$rem
sym_ignore = true
method = adc(2)
ee_states = 10
basis = cc-pVDZ
mem_static = 1024
mem_total = 30000
adc_davidson_maxiter = 900
adc_davidson_conv = 6
adc_print = 3
adc_prop_es = true
adc_prop_es2es = true
adc_prop_tpa = true
molden_format = True
state_analysis = true
print_orbitals = 15
gen_scfman = false
fde_export_density = true
fde_details = 3
$end

$molecule
0 1
H -0.0348278765 -0.2442097827 0.0636489606
C -1.0765972949 -0.5242748755 -0.0023551776
H -1.313264467 -1.5767591607 -0.0757276926
C -2.043634118 0.3926884087 0.0111254933
H -1.8137616575 1.4459188338 0.0804456828
H -3.085977293 0.114931858 -0.0593381042
$end
--------------------------------------------------------------

             Standard Nuclear Orientation (Angstroms)
    I     Atom           X                Y                Z
 ----------------------------------------------------------------
    1      H      -0.0348278765    -0.2442097827     0.0636489606
    2      C      -1.0765972949    -0.5242748755    -0.0023551776
    3      H      -1.3132644670    -1.5767591607    -0.0757276926
    4      C      -2.0436341180     0.3926884087     0.0111254933
    5      H      -1.8137616575     1.4459188338     0.0804456828
    6      H      -3.0859772930     0.1149318580    -0.0593381042
 ----------------------------------------------------------------

   11     -78.0399218886      2.74E-09 Convergence criterion met
 Total energy in the final basis set = -78.03992189
  Excited state 1 (singlet, A)                                     [converged]
  Term symbol:  2 (1) A                                     R^2 =  4.56240e-13
  Excitation energy:                                               8.736680 eV
  Excited state 2 (singlet, A)                                     [converged]
  Term symbol:  3 (1) A                                     R^2 =  4.41755e-13
  Excitation energy:                                               9.054337 eV
  Excited state 3 (singlet, A)                                     [converged]
  Term symbol:  4 (1) A                                     R^2 =  8.61961e-13
  Excitation energy:                                               9.170627 eV
  Excited state 4 (singlet, A)                                     [converged]
  Term symbol:  5 (1) A                                     R^2 =  5.54488e-13
  Excitation energy:                                               9.833349 eV
  Excited state 5 (singlet, A)                                     [converged]
  Term symbol:  6 (1) A                                     R^2 =  2.75492e-13
  Excitation energy:                                              10.211753 eV
  Excited state 6 (singlet, A)                                     [converged]
  Term symbol:  7 (1) A                                     R^2 =  5.15060e-13
  Excitation energy:                                              10.535385 eV
  Excited state 7 (singlet, A)                                     [converged]
  Term symbol:  8 (1) A                                     R^2 =  4.69881e-10
  Excitation energy:                                              11.557070 eV
  Excited state 8 (singlet, A)                                     [converged]
  Term symbol:  9 (1) A                                     R^2 =  1.03112e-09
  Excitation energy:                                              12.165103 eV
  Excited state 9 (singlet, A)                                     [converged]
  Term symbol:  10 (1) A                                    R^2 =  1.00503e-08
  Excitation energy:                                              12.416854 eV
  Excited state 10 (singlet, A)                                     [converged]
  Term symbol:  11 (1) A                                    R^2 =  5.52173e-07
  Excitation energy:                                              12.646045 eV
  Excitation energy:                                               0.317657 eV
  Excitation energy:                                               0.433947 eV
  Excitation energy:                                               0.116290 eV
  Excitation energy:                                               1.096669 eV
  Excitation energy:                                               0.779013 eV
  Excitation energy:                                               0.662723 eV
  Excitation energy:                                               1.475073 eV
  Excitation energy:                                               1.157416 eV
  Excitation energy:                                               1.041126 eV
  Excitation energy:                                               0.378404 eV
  Excitation energy:                                               1.798705 eV
  Excitation energy:                                               1.481048 eV
  Excitation energy:                                               1.364758 eV
  Excitation energy:                                               0.702036 eV
  Excitation energy:                                               0.323632 eV
  Excitation energy:                                               2.820390 eV
  Excitation energy:                                               2.502733 eV
  Excitation energy:                                               2.386443 eV
  Excitation energy:                                               1.723720 eV
  Excitation energy:                                               1.345317 eV
  Excitation energy:                                               1.021685 eV
  Excitation energy:                                               3.428423 eV
  Excitation energy:                                               3.110766 eV
  Excitation energy:                                               2.994476 eV
  Excitation energy:                                               2.331753 eV
  Excitation energy:                                               1.953350 eV
  Excitation energy:                                               1.629718 eV
  Excitation energy:                                               0.608033 eV
  Excitation energy:                                               3.680174 eV
  Excitation energy:                                               3.362517 eV
  Excitation energy:                                               3.246227 eV
  Excitation energy:                                               2.583504 eV
  Excitation energy:                                               2.205101 eV
  Excitation energy:                                               1.881468 eV
  Excitation energy:                                               0.859784 eV
  Excitation energy:                                               0.251751 eV
  Excitation energy:                                               3.909365 eV
  Excitation energy:                                               3.591709 eV
  Excitation energy:                                               3.475419 eV
  Excitation energy:                                               2.812696 eV
  Excitation energy:                                               2.434292 eV
  Excitation energy:                                               2.110660 eV
  Excitation energy:                                               1.088976 eV
  Excitation energy:                                               0.480943 eV
  Excitation energy:                                               0.229192 eV

                    Orbital Energies (a.u.)
 --------------------------------------------------------------

 Alpha MOs
 -- Occupied --
-11.2351 -11.2334  -1.0323  -0.7898  -0.6411  -0.5819  -0.5046  -0.3740

          Ground-State Mulliken Net Atomic Charges

     Atom                 Charge (a.u.)
  ----------------------------------------
      1 H                     0.048107
      2 C                    -0.095139
      3 H                     0.047682
      4 C                    -0.095512
      5 H                     0.047142
      6 H                     0.047721
  ----------------------------------------
  Sum of atomic charges =     0.000000

                    Cartesian Multipole Moments
 -----------------------------------------------------------------
    Charge (ESU x 10^10)
                 0.0000
    Dipole Moment (Debye)
         X      -0.0013      Y       0.0022      Z      -0.0058
       Tot       0.0063
    Quadrupole Moments (Debye-Ang)
        XX     -12.2170     XY      -0.0596     YY     -12.2662
        XZ       0.1665     YZ       0.1910     ZZ     -15.5413

 Total job time:  61.33s(wall), 196.03s(cpu)
        *  Thank you very much for using Q-Chem.  Have a nice day.  *
