 Q-Chem 5.4 (devel), Q-Chem, Inc., Pleasanton, CA (2021)
 Q-Chem 5.4.1 for Intel X86 EM64T Linux

User input:
--------------------------------------------------------------
$comment
generated from CCJob.Templates
$end

$rem
sym_ignore = true
method = adc(2)
ee_states = 10
basis = cc-pVDZ
mem_static = 1024
mem_total = 30000
adc_davidson_maxiter = 900
adc_davidson_conv = 6
adc_print = 3
adc_prop_es = true
adc_prop_es2es = true
adc_prop_tpa = true
molden_format = True
state_analysis = true
print_orbitals = 15
gen_scfman = false
fde_export_density = true
fde_details = 3
$end

$molecule
0 1
H -0.0348278765 -0.2442097827 0.0636489606
C -1.0765972949 -0.5242748755 -0.0023551776
H -1.313264467 -1.5767591607 -0.0757276926
C -2.043634118 0.3926884087 0.0061254933
H -1.8137616575 1.4409188338 0.0804456828
H -3.085977293 0.114931858 -0.0593381042
$end
--------------------------------------------------------------

             Standard Nuclear Orientation (Angstroms)
    I     Atom           X                Y                Z
 ----------------------------------------------------------------
    1      H      -0.0348278765    -0.2442097827     0.0636489606
    2      C      -1.0765972949    -0.5242748755    -0.0023551776
    3      H      -1.3132644670    -1.5767591607    -0.0757276926
    4      C      -2.0436341180     0.3926884087     0.0061254933
    5      H      -1.8137616575     1.4409188338     0.0804456828
    6      H      -3.0859772930     0.1149318580    -0.0593381042
 ----------------------------------------------------------------

   11     -78.0398854611      7.84E-09 Convergence criterion met
 Total energy in the final basis set = -78.03988546
  Excited state 1 (singlet, A)                                     [converged]
  Term symbol:  2 (1) A                                     R^2 =  3.31647e-14
  Excitation energy:                                               8.736884 eV
  Excited state 2 (singlet, A)                                     [converged]
  Term symbol:  3 (1) A                                     R^2 =  7.71149e-14
  Excitation energy:                                               9.061777 eV
  Excited state 3 (singlet, A)                                     [converged]
  Term symbol:  4 (1) A                                     R^2 =  6.33311e-14
  Excitation energy:                                               9.174459 eV
  Excited state 4 (singlet, A)                                     [converged]
  Term symbol:  5 (1) A                                     R^2 =  1.45553e-13
  Excitation energy:                                               9.841167 eV
  Excited state 5 (singlet, A)                                     [converged]
  Term symbol:  6 (1) A                                     R^2 =  1.21835e-13
  Excitation energy:                                              10.216453 eV
  Excited state 6 (singlet, A)                                     [converged]
  Term symbol:  7 (1) A                                     R^2 =  5.79229e-13
  Excitation energy:                                              10.538609 eV
  Excited state 7 (singlet, A)                                     [converged]
  Term symbol:  8 (1) A                                     R^2 =  5.66042e-10
  Excitation energy:                                              11.568024 eV
  Excited state 8 (singlet, A)                                     [converged]
  Term symbol:  9 (1) A                                     R^2 =  1.42403e-10
  Excitation energy:                                              12.171333 eV
  Excited state 9 (singlet, A)                                     [converged]
  Term symbol:  10 (1) A                                    R^2 =  1.38134e-09
  Excitation energy:                                              12.422405 eV
  Excited state 10 (singlet, A)                                     [converged]
  Term symbol:  11 (1) A                                    R^2 =  9.14138e-07
  Excitation energy:                                              12.659639 eV
  Excitation energy:                                               0.324893 eV
  Excitation energy:                                               0.437575 eV
  Excitation energy:                                               0.112682 eV
  Excitation energy:                                               1.104283 eV
  Excitation energy:                                               0.779390 eV
  Excitation energy:                                               0.666708 eV
  Excitation energy:                                               1.479569 eV
  Excitation energy:                                               1.154676 eV
  Excitation energy:                                               1.041994 eV
  Excitation energy:                                               0.375286 eV
  Excitation energy:                                               1.801725 eV
  Excitation energy:                                               1.476832 eV
  Excitation energy:                                               1.364150 eV
  Excitation energy:                                               0.697442 eV
  Excitation energy:                                               0.322156 eV
  Excitation energy:                                               2.831140 eV
  Excitation energy:                                               2.506248 eV
  Excitation energy:                                               2.393565 eV
  Excitation energy:                                               1.726857 eV
  Excitation energy:                                               1.351571 eV
  Excitation energy:                                               1.029415 eV
  Excitation energy:                                               3.434448 eV
  Excitation energy:                                               3.109556 eV
  Excitation energy:                                               2.996874 eV
  Excitation energy:                                               2.330165 eV
  Excitation energy:                                               1.954879 eV
  Excitation energy:                                               1.632723 eV
  Excitation energy:                                               0.603308 eV
  Excitation energy:                                               3.685521 eV
  Excitation energy:                                               3.360628 eV
  Excitation energy:                                               3.247946 eV
  Excitation energy:                                               2.581238 eV
  Excitation energy:                                               2.205952 eV
  Excitation energy:                                               1.883796 eV
  Excitation energy:                                               0.854380 eV
  Excitation energy:                                               0.251072 eV
  Excitation energy:                                               3.922755 eV
  Excitation energy:                                               3.597862 eV
  Excitation energy:                                               3.485180 eV
  Excitation energy:                                               2.818472 eV
  Excitation energy:                                               2.443186 eV
  Excitation energy:                                               2.121030 eV
  Excitation energy:                                               1.091615 eV
  Excitation energy:                                               0.488307 eV
  Excitation energy:                                               0.237234 eV

                    Orbital Energies (a.u.)
 --------------------------------------------------------------

 Alpha MOs
 -- Occupied --
-11.2349 -11.2331  -1.0325  -0.7902  -0.6416  -0.5820  -0.5050  -0.3740

          Ground-State Mulliken Net Atomic Charges

     Atom                 Charge (a.u.)
  ----------------------------------------
      1 H                     0.048048
      2 C                    -0.095935
      3 H                     0.047570
      4 C                    -0.092966
      5 H                     0.045787
      6 H                     0.047496
  ----------------------------------------
  Sum of atomic charges =     0.000000

                    Cartesian Multipole Moments
 -----------------------------------------------------------------
    Charge (ESU x 10^10)
                -0.0000
    Dipole Moment (Debye)
         X      -0.0015      Y       0.0040      Z       0.0015
       Tot       0.0045
    Quadrupole Moments (Debye-Ang)
        XX     -12.2116     XY      -0.0619     YY     -12.2678
        XZ       0.1520     YZ       0.1934     ZZ     -15.5349

 Total job time:  89.11s(wall), 298.11s(cpu)
        *  Thank you very much for using Q-Chem.  Have a nice day.  *
