 Q-Chem 5.4 (devel), Q-Chem, Inc., Pleasanton, CA (2021)
 Q-Chem 5.4.1 for Intel X86 EM64T Linux

User input:
--------------------------------------------------------------
$comment
generated from CCJob.Templates
$end

$rem
sym_ignore = true
method = adc(2)
ee_states = 10
basis = cc-pVDZ
mem_static = 1024
mem_total = 40000
adc_davidson_maxiter = 900
adc_davidson_conv = 6
adc_print = 3
adc_prop_es = true
adc_prop_es2es = true
adc_prop_tpa = true
molden_format = True
state_analysis = true
print_orbitals = 15
gen_scfman = false
fde_export_density = true
fde_details = 3
$end

$molecule
0 1
H -0.0348278765 -0.2442097827 0.0636489606
C -1.0765972949 -0.5242748755 -0.0023551776
H -1.313264467 -1.5767591607 -0.0757276926
C -2.043634118 0.4026884087 0.0061254933
H -1.8137616575 1.4459188338 0.0804456828
H -3.085977293 0.114931858 -0.0593381042
$end
--------------------------------------------------------------

             Standard Nuclear Orientation (Angstroms)
    I     Atom           X                Y                Z
 ----------------------------------------------------------------
    1      H      -0.0348278765    -0.2442097827     0.0636489606
    2      C      -1.0765972949    -0.5242748755    -0.0023551776
    3      H      -1.3132644670    -1.5767591607    -0.0757276926
    4      C      -2.0436341180     0.4026884087     0.0061254933
    5      H      -1.8137616575     1.4459188338     0.0804456828
    6      H      -3.0859772930     0.1149318580    -0.0593381042
 ----------------------------------------------------------------

   11     -78.0395550374      8.30E-09 Convergence criterion met
 Total energy in the final basis set = -78.03955504
  Excited state 1 (singlet, A)                                     [converged]
  Term symbol:  2 (1) A                                     R^2 =  3.27293e-14
  Excitation energy:                                               8.677323 eV
  Excited state 2 (singlet, A)                                     [converged]
  Term symbol:  3 (1) A                                     R^2 =  7.68128e-14
  Excitation energy:                                               9.057062 eV
  Excited state 3 (singlet, A)                                     [converged]
  Term symbol:  4 (1) A                                     R^2 =  5.81635e-14
  Excitation energy:                                               9.141468 eV
  Excited state 4 (singlet, A)                                     [converged]
  Term symbol:  5 (1) A                                     R^2 =  2.06213e-13
  Excitation energy:                                               9.831000 eV
  Excited state 5 (singlet, A)                                     [converged]
  Term symbol:  6 (1) A                                     R^2 =  1.24771e-13
  Excitation energy:                                              10.163496 eV
  Excited state 6 (singlet, A)                                     [converged]
  Term symbol:  7 (1) A                                     R^2 =  3.40020e-13
  Excitation energy:                                              10.484813 eV
  Excited state 7 (singlet, A)                                     [converged]
  Term symbol:  8 (1) A                                     R^2 =  6.09979e-12
  Excitation energy:                                              11.596751 eV
  Excited state 8 (singlet, A)                                     [converged]
  Term symbol:  9 (1) A                                     R^2 =  6.87894e-12
  Excitation energy:                                              12.129662 eV
  Excited state 9 (singlet, A)                                     [converged]
  Term symbol:  10 (1) A                                    R^2 =  9.03385e-11
  Excitation energy:                                              12.381025 eV
  Excited state 10 (singlet, A)                                     [converged]
  Term symbol:  11 (1) A                                    R^2 =  6.86594e-07
  Excitation energy:                                              12.705047 eV
  Excitation energy:                                               0.379739 eV
  Excitation energy:                                               0.464145 eV
  Excitation energy:                                               0.084406 eV
  Excitation energy:                                               1.153677 eV
  Excitation energy:                                               0.773938 eV
  Excitation energy:                                               0.689532 eV
  Excitation energy:                                               1.486173 eV
  Excitation energy:                                               1.106434 eV
  Excitation energy:                                               1.022028 eV
  Excitation energy:                                               0.332496 eV
  Excitation energy:                                               1.807490 eV
  Excitation energy:                                               1.427750 eV
  Excitation energy:                                               1.343345 eV
  Excitation energy:                                               0.653812 eV
  Excitation energy:                                               0.321316 eV
  Excitation energy:                                               2.919428 eV
  Excitation energy:                                               2.539689 eV
  Excitation energy:                                               2.455283 eV
  Excitation energy:                                               1.765751 eV
  Excitation energy:                                               1.433255 eV
  Excitation energy:                                               1.111938 eV
  Excitation energy:                                               3.452339 eV
  Excitation energy:                                               3.072599 eV
  Excitation energy:                                               2.988194 eV
  Excitation energy:                                               2.298661 eV
  Excitation energy:                                               1.966165 eV
  Excitation energy:                                               1.644849 eV
  Excitation energy:                                               0.532911 eV
  Excitation energy:                                               3.703702 eV
  Excitation energy:                                               3.323963 eV
  Excitation energy:                                               3.239557 eV
  Excitation energy:                                               2.550025 eV
  Excitation energy:                                               2.217529 eV
  Excitation energy:                                               1.896213 eV
  Excitation energy:                                               0.784274 eV
  Excitation energy:                                               0.251364 eV
  Excitation energy:                                               4.027724 eV
  Excitation energy:                                               3.647985 eV
  Excitation energy:                                               3.563579 eV
  Excitation energy:                                               2.874047 eV
  Excitation energy:                                               2.541551 eV
  Excitation energy:                                               2.220235 eV
  Excitation energy:                                               1.108296 eV
  Excitation energy:                                               0.575386 eV
  Excitation energy:                                               0.324022 eV

                    Orbital Energies (a.u.)
 --------------------------------------------------------------

 Alpha MOs
 -- Occupied --
-11.2358 -11.2340  -1.0306  -0.7910  -0.6415  -0.5803  -0.5066  -0.3723

          Ground-State Mulliken Net Atomic Charges

     Atom                 Charge (a.u.)
  ----------------------------------------
      1 H                     0.048220
      2 C                    -0.098251
      3 H                     0.048431
      4 C                    -0.092718
      5 H                     0.045829
      6 H                     0.048490
  ----------------------------------------
  Sum of atomic charges =     0.000000

                    Cartesian Multipole Moments
 -----------------------------------------------------------------
    Charge (ESU x 10^10)
                -0.0000
    Dipole Moment (Debye)
         X       0.0015      Y       0.0040      Z       0.0023
       Tot       0.0049
    Quadrupole Moments (Debye-Ang)
        XX     -12.2499     XY      -0.0575     YY     -12.2307
        XZ       0.1505     YZ       0.1972     ZZ     -15.5595

 Total job time:  121.33s(wall), 388.47s(cpu)
        *  Thank you very much for using Q-Chem.  Have a nice day.  *
