 Q-Chem 5.4 (devel), Q-Chem, Inc., Pleasanton, CA (2021)
 Q-Chem 5.4.1 for Intel X86 EM64T Linux

User input:
--------------------------------------------------------------
$comment
generated from CCJob.Templates
$end

$rem
sym_ignore = true
method = adc(2)
ee_states = 10
basis = cc-pVDZ
mem_static = 1024
mem_total = 40000
adc_davidson_maxiter = 900
adc_davidson_conv = 6
adc_print = 3
adc_prop_es = true
adc_prop_es2es = true
adc_prop_tpa = true
molden_format = True
state_analysis = true
print_orbitals = 15
gen_scfman = false
fde_export_density = true
fde_details = 3
$end

$molecule
0 1
H -0.022248227831681046 -0.24527340933730696 0.06519614532287434
C -1.078703115061584 -0.5236648270509101 -0.002355544397530205
H -1.3029423732748557 -1.592427363996989 -0.07774241851535528
C -2.0439678165383843 0.3930887981508797 0.006602511897539455
H -1.8197681273252342 1.4618634250970195 0.08196904801531696
H -3.1004332828683387 0.11470889483738492 -0.06087064402286641
$end
--------------------------------------------------------------

             Standard Nuclear Orientation (Angstroms)
    I     Atom           X                Y                Z
 ----------------------------------------------------------------
    1      H      -0.0222482278    -0.2452734093     0.0651961453
    2      C      -1.0787031151    -0.5236648271    -0.0023555444
    3      H      -1.3029423733    -1.5924273640    -0.0777424185
    4      C      -2.0439678165     0.3930887982     0.0066025119
    5      H      -1.8197681273     1.4618634251     0.0819690480
    6      H      -3.1004332829     0.1147088948    -0.0608706440
 ----------------------------------------------------------------

   10     -78.0396993585      3.76E-09 Convergence criterion met
 Total energy in the final basis set = -78.03969936
  Excited state 1 (singlet, A)                                     [converged]
  Term symbol:  2 (1) A                                     R^2 =  1.71135e-10
  Excitation energy:                                               8.751235 eV
  Excited state 2 (singlet, A)                                     [converged]
  Term symbol:  3 (1) A                                     R^2 =  1.92911e-11
  Excitation energy:                                               8.959049 eV
  Excited state 3 (singlet, A)                                     [converged]
  Term symbol:  4 (1) A                                     R^2 =  2.92874e-11
  Excitation energy:                                               9.146834 eV
  Excited state 4 (singlet, A)                                     [converged]
  Term symbol:  5 (1) A                                     R^2 =  1.14017e-11
  Excitation energy:                                               9.741173 eV
  Excited state 5 (singlet, A)                                     [converged]
  Term symbol:  6 (1) A                                     R^2 =  7.82867e-11
  Excitation energy:                                              10.170565 eV
  Excited state 6 (singlet, A)                                     [converged]
  Term symbol:  7 (1) A                                     R^2 =  4.05276e-10
  Excitation energy:                                              10.535298 eV
  Excited state 7 (singlet, A)                                     [converged]
  Term symbol:  8 (1) A                                     R^2 =  5.44663e-07
  Excitation energy:                                              11.424183 eV
  Excited state 8 (singlet, A)                                     [converged]
  Term symbol:  9 (1) A                                     R^2 =  2.34845e-07
  Excitation energy:                                              12.087708 eV
  Excited state 9 (singlet, A)                                     [converged]
  Term symbol:  10 (1) A                                    R^2 =  4.41929e-07
  Excitation energy:                                              12.362169 eV
  Excited state 10 (singlet, A)                                     [converged]
  Term symbol:  11 (1) A                                    R^2 =  5.53457e-07
  Excitation energy:                                              12.464723 eV
  Excitation energy:                                               0.207814 eV
  Excitation energy:                                               0.395599 eV
  Excitation energy:                                               0.187785 eV
  Excitation energy:                                               0.989938 eV
  Excitation energy:                                               0.782124 eV
  Excitation energy:                                               0.594339 eV
  Excitation energy:                                               1.419330 eV
  Excitation energy:                                               1.211516 eV
  Excitation energy:                                               1.023732 eV
  Excitation energy:                                               0.429392 eV
  Excitation energy:                                               1.784063 eV
  Excitation energy:                                               1.576249 eV
  Excitation energy:                                               1.388465 eV
  Excitation energy:                                               0.794125 eV
  Excitation energy:                                               0.364733 eV
  Excitation energy:                                               2.672947 eV
  Excitation energy:                                               2.465133 eV
  Excitation energy:                                               2.277349 eV
  Excitation energy:                                               1.683010 eV
  Excitation energy:                                               1.253617 eV
  Excitation energy:                                               0.888884 eV
  Excitation energy:                                               3.336473 eV
  Excitation energy:                                               3.128659 eV
  Excitation energy:                                               2.940874 eV
  Excitation energy:                                               2.346535 eV
  Excitation energy:                                               1.917143 eV
  Excitation energy:                                               1.552410 eV
  Excitation energy:                                               0.663525 eV
  Excitation energy:                                               3.610934 eV
  Excitation energy:                                               3.403120 eV
  Excitation energy:                                               3.215335 eV
  Excitation energy:                                               2.620996 eV
  Excitation energy:                                               2.191604 eV
  Excitation energy:                                               1.826871 eV
  Excitation energy:                                               0.937986 eV
  Excitation energy:                                               0.274461 eV
  Excitation energy:                                               3.713488 eV
  Excitation energy:                                               3.505674 eV
  Excitation energy:                                               3.317889 eV
  Excitation energy:                                               2.723550 eV
  Excitation energy:                                               2.294158 eV
  Excitation energy:                                               1.929425 eV
  Excitation energy:                                               1.040541 eV
  Excitation energy:                                               0.377015 eV
  Excitation energy:                                               0.102554 eV

                    Orbital Energies (a.u.)
 --------------------------------------------------------------

 Alpha MOs
 -- Occupied --
-11.2385 -11.2368  -1.0306  -0.7853  -0.6354  -0.5824  -0.4992  -0.3749

          Ground-State Mulliken Net Atomic Charges

     Atom                 Charge (a.u.)
  ----------------------------------------
      1 H                     0.052249
      2 C                    -0.104502
      3 H                     0.052259
      4 C                    -0.104510
      5 H                     0.052257
      6 H                     0.052247
  ----------------------------------------
  Sum of atomic charges =     0.000000

                    Cartesian Multipole Moments
 -----------------------------------------------------------------
    Charge (ESU x 10^10)
                -0.0000
    Dipole Moment (Debye)
         X      -0.0000      Y       0.0000      Z       0.0000
       Tot       0.0000
    Quadrupole Moments (Debye-Ang)
        XX     -12.2498     XY      -0.0943     YY     -12.2627
        XZ       0.1561     YZ       0.1985     ZZ     -15.6030

 Total job time:  116.44s(wall), 352.15s(cpu)
        *  Thank you very much for using Q-Chem.  Have a nice day.  *
