 Q-Chem 5.4 (devel), Q-Chem, Inc., Pleasanton, CA (2021)
 Q-Chem 5.4.1 for Intel X86 EM64T Linux

User input:
--------------------------------------------------------------
$comment
generated from CCJob.Templates
$end

$rem
sym_ignore = true
method = adc(2)
ee_states = 10
basis = cc-pVDZ
mem_static = 1024
mem_total = 40000
adc_davidson_maxiter = 900
adc_davidson_conv = 6
adc_print = 3
adc_prop_es = true
adc_prop_es2es = true
adc_prop_tpa = true
molden_format = True
state_analysis = true
print_orbitals = 15
gen_scfman = false
fde_export_density = true
fde_details = 3
$end

$molecule
0 1
H -0.0348278765 -0.2442097827 0.0636489606
C -1.0765972949 -0.5242748755 -0.0023551776
H -1.313264467 -1.5767591607 -0.0757276926
C -2.043634118 0.3926884087 0.0061254933
H -1.8137616575 1.4459188338 0.0804456828
H -3.125977293 0.114931858 -0.0593381042
$end
--------------------------------------------------------------

             Standard Nuclear Orientation (Angstroms)
    I     Atom           X                Y                Z
 ----------------------------------------------------------------
    1      H      -0.0348278765    -0.2442097827     0.0636489606
    2      C      -1.0765972949    -0.5242748755    -0.0023551776
    3      H      -1.3132644670    -1.5767591607    -0.0757276926
    4      C      -2.0436341180     0.3926884087     0.0061254933
    5      H      -1.8137616575     1.4459188338     0.0804456828
    6      H      -3.1259772930     0.1149318580    -0.0593381042
 ----------------------------------------------------------------

   11     -78.0390841234      6.16E-09 Convergence criterion met
 Total energy in the final basis set = -78.03908412
  Excited state 1 (singlet, A)                                     [converged]
  Term symbol:  2 (1) A                                     R^2 =  9.10444e-14
  Excitation energy:                                               8.739233 eV
  Excited state 2 (singlet, A)                                     [converged]
  Term symbol:  3 (1) A                                     R^2 =  2.58362e-13
  Excitation energy:                                               8.991422 eV
  Excited state 3 (singlet, A)                                     [converged]
  Term symbol:  4 (1) A                                     R^2 =  1.73551e-13
  Excitation energy:                                               9.137351 eV
  Excited state 4 (singlet, A)                                     [converged]
  Term symbol:  5 (1) A                                     R^2 =  2.78318e-13
  Excitation energy:                                               9.760833 eV
  Excited state 5 (singlet, A)                                     [converged]
  Term symbol:  6 (1) A                                     R^2 =  1.99963e-13
  Excitation energy:                                              10.182199 eV
  Excited state 6 (singlet, A)                                     [converged]
  Term symbol:  7 (1) A                                     R^2 =  3.81036e-13
  Excitation energy:                                              10.517682 eV
  Excited state 7 (singlet, A)                                     [converged]
  Term symbol:  8 (1) A                                     R^2 =  5.17508e-11
  Excitation energy:                                              11.462589 eV
  Excited state 8 (singlet, A)                                     [converged]
  Term symbol:  9 (1) A                                     R^2 =  3.62385e-10
  Excitation energy:                                              12.115652 eV
  Excited state 9 (singlet, A)                                     [converged]
  Term symbol:  10 (1) A                                    R^2 =  5.29447e-09
  Excitation energy:                                              12.375798 eV
  Excited state 10 (singlet, A)                                     [converged]
  Term symbol:  11 (1) A                                    R^2 =  6.02932e-07
  Excitation energy:                                              12.515531 eV
  Excitation energy:                                               0.252190 eV
  Excitation energy:                                               0.398118 eV
  Excitation energy:                                               0.145928 eV
  Excitation energy:                                               1.021600 eV
  Excitation energy:                                               0.769410 eV
  Excitation energy:                                               0.623482 eV
  Excitation energy:                                               1.442966 eV
  Excitation energy:                                               1.190777 eV
  Excitation energy:                                               1.044848 eV
  Excitation energy:                                               0.421366 eV
  Excitation energy:                                               1.778450 eV
  Excitation energy:                                               1.526260 eV
  Excitation energy:                                               1.380332 eV
  Excitation energy:                                               0.756850 eV
  Excitation energy:                                               0.335483 eV
  Excitation energy:                                               2.723356 eV
  Excitation energy:                                               2.471167 eV
  Excitation energy:                                               2.325238 eV
  Excitation energy:                                               1.701756 eV
  Excitation energy:                                               1.280390 eV
  Excitation energy:                                               0.944907 eV
  Excitation energy:                                               3.376419 eV
  Excitation energy:                                               3.124229 eV
  Excitation energy:                                               2.978301 eV
  Excitation energy:                                               2.354819 eV
  Excitation energy:                                               1.933453 eV
  Excitation energy:                                               1.597969 eV
  Excitation energy:                                               0.653063 eV
  Excitation energy:                                               3.636566 eV
  Excitation energy:                                               3.384376 eV
  Excitation energy:                                               3.238448 eV
  Excitation energy:                                               2.614966 eV
  Excitation energy:                                               2.193599 eV
  Excitation energy:                                               1.858116 eV
  Excitation energy:                                               0.913209 eV
  Excitation energy:                                               0.260146 eV
  Excitation energy:                                               3.776299 eV
  Excitation energy:                                               3.524109 eV
  Excitation energy:                                               3.378181 eV
  Excitation energy:                                               2.754699 eV
  Excitation energy:                                               2.333332 eV
  Excitation energy:                                               1.997849 eV
  Excitation energy:                                               1.052942 eV
  Excitation energy:                                               0.399880 eV
  Excitation energy:                                               0.139733 eV

                    Orbital Energies (a.u.)
 --------------------------------------------------------------

 Alpha MOs
 -- Occupied --
-11.2387 -11.2347  -1.0310  -0.7865  -0.6378  -0.5812  -0.5012  -0.3744

          Ground-State Mulliken Net Atomic Charges

     Atom                 Charge (a.u.)
  ----------------------------------------
      1 H                     0.048895
      2 C                    -0.088831
      3 H                     0.048317
      4 C                    -0.114436
      5 H                     0.048519
      6 H                     0.057536
  ----------------------------------------
  Sum of atomic charges =     0.000000

                    Cartesian Multipole Moments
 -----------------------------------------------------------------
    Charge (ESU x 10^10)
                 0.0000
    Dipole Moment (Debye)
         X       0.0172      Y       0.0053      Z       0.0036
       Tot       0.0183
    Quadrupole Moments (Debye-Ang)
        XX     -12.2749     XY      -0.0698     YY     -12.2897
        XZ       0.1484     YZ       0.1946     ZZ     -15.5893

 Total job time:  77.17s(wall), 244.72s(cpu)
        *  Thank you very much for using Q-Chem.  Have a nice day.  *
