 Q-Chem 5.4 (devel), Q-Chem, Inc., Pleasanton, CA (2021)
 Q-Chem 5.4.1 for Intel X86 EM64T Linux

User input:
--------------------------------------------------------------
$comment
generated from CCJob.Templates
$end

$rem
sym_ignore = true
method = adc(2)
ee_states = 10
basis = cc-pVDZ
mem_static = 1024
mem_total = 40000
adc_davidson_maxiter = 900
adc_davidson_conv = 6
adc_print = 3
adc_prop_es = true
adc_prop_es2es = true
adc_prop_tpa = true
molden_format = True
state_analysis = true
print_orbitals = 15
gen_scfman = false
fde_export_density = true
fde_details = 3
$end

$molecule
0 1
H -0.0207678193554381 -0.24835677833321254 0.06507576528394732
C -1.0767252664277058 -0.5231707829082469 -0.0022249843566709625
H -1.3026170211440757 -1.5923347239780286 -0.07772652650960148
C -2.045945777172299 0.3925948460082469 0.0064719518566797515
H -1.820093191455919 1.461770749078046 0.0819532680096002
H -3.1019135953445507 0.1177919758331962 -0.0607503799839762
$end
--------------------------------------------------------------

             Standard Nuclear Orientation (Angstroms)
    I     Atom           X                Y                Z
 ----------------------------------------------------------------
    1      H      -0.0207678194    -0.2483567783     0.0650757653
    2      C      -1.0767252664    -0.5231707829    -0.0022249844
    3      H      -1.3026170211    -1.5923347240    -0.0777265265
    4      C      -2.0459457772     0.3925948460     0.0064719519
    5      H      -1.8200931915     1.4617707491     0.0819532680
    6      H      -3.1019135953     0.1177919758    -0.0607503800
 ----------------------------------------------------------------

   10     -78.0396422346      3.80E-09 Convergence criterion met
 Total energy in the final basis set = -78.03964223
  Excited state 1 (singlet, A)                                     [converged]
  Term symbol:  2 (1) A                                     R^2 =  4.02346e-13
  Excitation energy:                                               8.731785 eV
  Excited state 2 (singlet, A)                                     [converged]
  Term symbol:  3 (1) A                                     R^2 =  4.15875e-13
  Excitation energy:                                               8.951893 eV
  Excited state 3 (singlet, A)                                     [converged]
  Term symbol:  4 (1) A                                     R^2 =  5.61835e-13
  Excitation energy:                                               9.141640 eV
  Excited state 4 (singlet, A)                                     [converged]
  Term symbol:  5 (1) A                                     R^2 =  5.62824e-13
  Excitation energy:                                               9.738161 eV
  Excited state 5 (singlet, A)                                     [converged]
  Term symbol:  6 (1) A                                     R^2 =  1.56359e-13
  Excitation energy:                                              10.158640 eV
  Excited state 6 (singlet, A)                                     [converged]
  Term symbol:  7 (1) A                                     R^2 =  3.92447e-13
  Excitation energy:                                              10.521170 eV
  Excited state 7 (singlet, A)                                     [converged]
  Term symbol:  8 (1) A                                     R^2 =  1.42531e-11
  Excitation energy:                                              11.433461 eV
  Excited state 8 (singlet, A)                                     [converged]
  Term symbol:  9 (1) A                                     R^2 =  6.88107e-11
  Excitation energy:                                              12.068152 eV
  Excited state 9 (singlet, A)                                     [converged]
  Term symbol:  10 (1) A                                    R^2 =  1.15471e-09
  Excitation energy:                                              12.346686 eV
  Excited state 10 (singlet, A)                                     [converged]
  Term symbol:  11 (1) A                                    R^2 =  6.86402e-07
  Excitation energy:                                              12.476339 eV
  Excitation energy:                                               0.220108 eV
  Excitation energy:                                               0.409855 eV
  Excitation energy:                                               0.189747 eV
  Excitation energy:                                               1.006376 eV
  Excitation energy:                                               0.786268 eV
  Excitation energy:                                               0.596521 eV
  Excitation energy:                                               1.426855 eV
  Excitation energy:                                               1.206747 eV
  Excitation energy:                                               1.017000 eV
  Excitation energy:                                               0.420479 eV
  Excitation energy:                                               1.789385 eV
  Excitation energy:                                               1.569277 eV
  Excitation energy:                                               1.379530 eV
  Excitation energy:                                               0.783009 eV
  Excitation energy:                                               0.362530 eV
  Excitation energy:                                               2.701676 eV
  Excitation energy:                                               2.481568 eV
  Excitation energy:                                               2.291821 eV
  Excitation energy:                                               1.695300 eV
  Excitation energy:                                               1.274821 eV
  Excitation energy:                                               0.912291 eV
  Excitation energy:                                               3.336367 eV
  Excitation energy:                                               3.116259 eV
  Excitation energy:                                               2.926512 eV
  Excitation energy:                                               2.329991 eV
  Excitation energy:                                               1.909512 eV
  Excitation energy:                                               1.546982 eV
  Excitation energy:                                               0.634691 eV
  Excitation energy:                                               3.614901 eV
  Excitation energy:                                               3.394792 eV
  Excitation energy:                                               3.205046 eV
  Excitation energy:                                               2.608524 eV
  Excitation energy:                                               2.188046 eV
  Excitation energy:                                               1.825515 eV
  Excitation energy:                                               0.913224 eV
  Excitation energy:                                               0.278534 eV
  Excitation energy:                                               3.744554 eV
  Excitation energy:                                               3.524446 eV
  Excitation energy:                                               3.334699 eV
  Excitation energy:                                               2.738178 eV
  Excitation energy:                                               2.317699 eV
  Excitation energy:                                               1.955169 eV
  Excitation energy:                                               1.042878 eV
  Excitation energy:                                               0.408187 eV
  Excitation energy:                                               0.129653 eV

                    Orbital Energies (a.u.)
 --------------------------------------------------------------

 Alpha MOs
 -- Occupied --
-11.2388 -11.2372  -1.0299  -0.7859  -0.6350  -0.5824  -0.4995  -0.3744

          Ground-State Mulliken Net Atomic Charges

     Atom                 Charge (a.u.)
  ----------------------------------------
      1 H                     0.052443
      2 C                    -0.104743
      3 H                     0.052305
      4 C                    -0.104750
      5 H                     0.052304
      6 H                     0.052441
  ----------------------------------------
  Sum of atomic charges =     0.000000

                    Cartesian Multipole Moments
 -----------------------------------------------------------------
    Charge (ESU x 10^10)
                -0.0000
    Dipole Moment (Debye)
         X      -0.0000      Y       0.0000      Z       0.0000
       Tot       0.0000
    Quadrupole Moments (Debye-Ang)
        XX     -12.2234     XY      -0.1041     YY     -12.2815
        XZ       0.1571     YZ       0.1973     ZZ     -15.6098

 Total job time:  142.47s(wall), 436.69s(cpu)
        *  Thank you very much for using Q-Chem.  Have a nice day.  *
