 Q-Chem 5.4 (devel), Q-Chem, Inc., Pleasanton, CA (2021)
 Q-Chem 5.4.1 for Intel X86 EM64T Linux

User input:
--------------------------------------------------------------
$comment
generated from CCJob.Templates
$end

$rem
sym_ignore = true
method = adc(2)
ee_states = 10
basis = cc-pVDZ
mem_static = 1024
mem_total = 30000
adc_davidson_maxiter = 900
adc_davidson_conv = 6
adc_print = 3
adc_prop_es = true
adc_prop_es2es = true
adc_prop_tpa = true
molden_format = True
state_analysis = true
print_orbitals = 15
gen_scfman = false
fde_export_density = true
fde_details = 3
$end

$molecule
0 1
H -0.0348278765 -0.2442097827 0.0636489606
C -1.0765972949 -0.5242748755 -0.0023551776
H -1.313264467 -1.5767591607 -0.0757276926
C -2.043634118 0.3926884087 0.0061254933
H -1.8137616575 1.4459188338 0.0804456828
H -3.080977293 0.114931858 -0.0593381042
$end
--------------------------------------------------------------

             Standard Nuclear Orientation (Angstroms)
    I     Atom           X                Y                Z
 ----------------------------------------------------------------
    1      H      -0.0348278765    -0.2442097827     0.0636489606
    2      C      -1.0765972949    -0.5242748755    -0.0023551776
    3      H      -1.3132644670    -1.5767591607    -0.0757276926
    4      C      -2.0436341180     0.3926884087     0.0061254933
    5      H      -1.8137616575     1.4459188338     0.0804456828
    6      H      -3.0809772930     0.1149318580    -0.0593381042
 ----------------------------------------------------------------

   11     -78.0398899791      7.82E-09 Convergence criterion met
 Total energy in the final basis set = -78.03988998
  Excited state 1 (singlet, A)                                     [converged]
  Term symbol:  2 (1) A                                     R^2 =  3.78800e-13
  Excitation energy:                                               8.736902 eV
  Excited state 2 (singlet, A)                                     [converged]
  Term symbol:  3 (1) A                                     R^2 =  3.31540e-13
  Excitation energy:                                               9.061788 eV
  Excited state 3 (singlet, A)                                     [converged]
  Term symbol:  4 (1) A                                     R^2 =  5.20802e-13
  Excitation energy:                                               9.174275 eV
  Excited state 4 (singlet, A)                                     [converged]
  Term symbol:  5 (1) A                                     R^2 =  3.18093e-13
  Excitation energy:                                               9.841446 eV
  Excited state 5 (singlet, A)                                     [converged]
  Term symbol:  6 (1) A                                     R^2 =  4.30709e-13
  Excitation energy:                                              10.216128 eV
  Excited state 6 (singlet, A)                                     [converged]
  Term symbol:  7 (1) A                                     R^2 =  7.18074e-13
  Excitation energy:                                              10.538554 eV
  Excited state 7 (singlet, A)                                     [converged]
  Term symbol:  8 (1) A                                     R^2 =  5.53148e-11
  Excitation energy:                                              11.567899 eV
  Excited state 8 (singlet, A)                                     [converged]
  Term symbol:  9 (1) A                                     R^2 =  3.06142e-11
  Excitation energy:                                              12.171455 eV
  Excited state 9 (singlet, A)                                     [converged]
  Term symbol:  10 (1) A                                    R^2 =  4.82034e-10
  Excitation energy:                                              12.422509 eV
  Excited state 10 (singlet, A)                                     [converged]
  Term symbol:  11 (1) A                                    R^2 =  8.91262e-07
  Excitation energy:                                              12.659967 eV
  Excitation energy:                                               0.324886 eV
  Excitation energy:                                               0.437374 eV
  Excitation energy:                                               0.112488 eV
  Excitation energy:                                               1.104544 eV
  Excitation energy:                                               0.779658 eV
  Excitation energy:                                               0.667171 eV
  Excitation energy:                                               1.479227 eV
  Excitation energy:                                               1.154341 eV
  Excitation energy:                                               1.041853 eV
  Excitation energy:                                               0.374682 eV
  Excitation energy:                                               1.801652 eV
  Excitation energy:                                               1.476766 eV
  Excitation energy:                                               1.364279 eV
  Excitation energy:                                               0.697108 eV
  Excitation energy:                                               0.322425 eV
  Excitation energy:                                               2.830998 eV
  Excitation energy:                                               2.506112 eV
  Excitation energy:                                               2.393624 eV
  Excitation energy:                                               1.726453 eV
  Excitation energy:                                               1.351771 eV
  Excitation energy:                                               1.029346 eV
  Excitation energy:                                               3.434554 eV
  Excitation energy:                                               3.109668 eV
  Excitation energy:                                               2.997180 eV
  Excitation energy:                                               2.330009 eV
  Excitation energy:                                               1.955327 eV
  Excitation energy:                                               1.632901 eV
  Excitation energy:                                               0.603556 eV
  Excitation energy:                                               3.685608 eV
  Excitation energy:                                               3.360722 eV
  Excitation energy:                                               3.248234 eV
  Excitation energy:                                               2.581063 eV
  Excitation energy:                                               2.206381 eV
  Excitation energy:                                               1.883955 eV
  Excitation energy:                                               0.854610 eV
  Excitation energy:                                               0.251054 eV
  Excitation energy:                                               3.923065 eV
  Excitation energy:                                               3.598179 eV
  Excitation energy:                                               3.485691 eV
  Excitation energy:                                               2.818521 eV
  Excitation energy:                                               2.443838 eV
  Excitation energy:                                               2.121413 eV
  Excitation energy:                                               1.092067 eV
  Excitation energy:                                               0.488511 eV
  Excitation energy:                                               0.237457 eV

                    Orbital Energies (a.u.)
 --------------------------------------------------------------

 Alpha MOs
 -- Occupied --
-11.2349 -11.2331  -1.0325  -0.7902  -0.6416  -0.5820  -0.5050  -0.3740

          Ground-State Mulliken Net Atomic Charges

     Atom                 Charge (a.u.)
  ----------------------------------------
      1 H                     0.048027
      2 C                    -0.095937
      3 H                     0.047583
      4 C                    -0.092965
      5 H                     0.047036
      6 H                     0.046255
  ----------------------------------------
  Sum of atomic charges =     0.000000

                    Cartesian Multipole Moments
 -----------------------------------------------------------------
    Charge (ESU x 10^10)
                -0.0000
    Dipole Moment (Debye)
         X      -0.0039      Y       0.0013      Z       0.0009
       Tot       0.0042
    Quadrupole Moments (Debye-Ang)
        XX     -12.2067     XY      -0.0572     YY     -12.2652
        XZ       0.1532     YZ       0.1932     ZZ     -15.5350

 Total job time:  125.58s(wall), 387.98s(cpu)
        *  Thank you very much for using Q-Chem.  Have a nice day.  *
