 Q-Chem 5.4 (devel), Q-Chem, Inc., Pleasanton, CA (2021)
 Q-Chem 5.4.1 for Intel X86 EM64T Linux

User input:
--------------------------------------------------------------
$comment
generated from CCJob.Templates
$end

$rem
sym_ignore = true
method = adc(2)
ee_states = 10
basis = cc-pVDZ
mem_static = 1024
mem_total = 40000
adc_davidson_maxiter = 900
adc_davidson_conv = 6
adc_print = 3
adc_prop_es = true
adc_prop_es2es = true
adc_prop_tpa = true
molden_format = True
state_analysis = true
print_orbitals = 15
gen_scfman = false
fde_export_density = true
fde_details = 3
$end

$molecule
0 1
H -0.020069734748129044 -0.24496658474082808 0.03338288699388598
C -1.0796317877921655 -0.5265681765394918 0.03186403933803228
H -1.2995894997699313 -1.5911803511264995 -0.10944283680777486
C -2.0430420398094493 0.39598991963815394 -0.02756925981044393
H -1.8231183288286845 1.4606224002300057 0.11358726226030258
H -3.102604435947673 0.11440391424202756 -0.029140129741588916
$end
--------------------------------------------------------------

             Standard Nuclear Orientation (Angstroms)
    I     Atom           X                Y                Z
 ----------------------------------------------------------------
    1      H      -0.0200697347    -0.2449665847     0.0333828870
    2      C      -1.0796317878    -0.5265681765     0.0318640393
    3      H      -1.2995894998    -1.5911803511    -0.1094428368
    4      C      -2.0430420398     0.3959899196    -0.0275692598
    5      H      -1.8231183288     1.4606224002     0.1135872623
    6      H      -3.1026044359     0.1144039142    -0.0291401297
 ----------------------------------------------------------------

   11     -78.0377215704      4.30E-09 Convergence criterion met
 Total energy in the final basis set = -78.03772157
  Excited state 1 (singlet, A)                                     [converged]
  Term symbol:  2 (1) A                                     R^2 =  7.74273e-14
  Excitation energy:                                               8.685930 eV
  Excited state 2 (singlet, A)                                     [converged]
  Term symbol:  3 (1) A                                     R^2 =  4.87262e-13
  Excitation energy:                                               8.872576 eV
  Excited state 3 (singlet, A)                                     [converged]
  Term symbol:  4 (1) A                                     R^2 =  3.76022e-14
  Excitation energy:                                               9.160357 eV
  Excited state 4 (singlet, A)                                     [converged]
  Term symbol:  5 (1) A                                     R^2 =  4.59529e-14
  Excitation energy:                                               9.744851 eV
  Excited state 5 (singlet, A)                                     [converged]
  Term symbol:  6 (1) A                                     R^2 =  8.49160e-14
  Excitation energy:                                              10.129706 eV
  Excited state 6 (singlet, A)                                     [converged]
  Term symbol:  7 (1) A                                     R^2 =  2.68892e-13
  Excitation energy:                                              10.462719 eV
  Excited state 7 (singlet, A)                                     [converged]
  Term symbol:  8 (1) A                                     R^2 =  5.38823e-12
  Excitation energy:                                              11.403696 eV
  Excited state 8 (singlet, A)                                     [converged]
  Term symbol:  9 (1) A                                     R^2 =  2.69582e-08
  Excitation energy:                                              12.002975 eV
  Excited state 9 (singlet, A)                                     [converged]
  Term symbol:  10 (1) A                                    R^2 =  8.72375e-07
  Excitation energy:                                              12.316262 eV
  Excited state 10 (singlet, A)                                     [converged]
  Term symbol:  11 (1) A                                    R^2 =  1.40499e-07
  Excitation energy:                                              12.451029 eV
  Excitation energy:                                               0.186646 eV
  Excitation energy:                                               0.474427 eV
  Excitation energy:                                               0.287780 eV
  Excitation energy:                                               1.058921 eV
  Excitation energy:                                               0.872274 eV
  Excitation energy:                                               0.584494 eV
  Excitation energy:                                               1.443776 eV
  Excitation energy:                                               1.257130 eV
  Excitation energy:                                               0.969350 eV
  Excitation energy:                                               0.384855 eV
  Excitation energy:                                               1.776789 eV
  Excitation energy:                                               1.590143 eV
  Excitation energy:                                               1.302362 eV
  Excitation energy:                                               0.717868 eV
  Excitation energy:                                               0.333013 eV
  Excitation energy:                                               2.717766 eV
  Excitation energy:                                               2.531120 eV
  Excitation energy:                                               2.243339 eV
  Excitation energy:                                               1.658845 eV
  Excitation energy:                                               1.273990 eV
  Excitation energy:                                               0.940977 eV
  Excitation energy:                                               3.317045 eV
  Excitation energy:                                               3.130399 eV
  Excitation energy:                                               2.842618 eV
  Excitation energy:                                               2.258124 eV
  Excitation energy:                                               1.873269 eV
  Excitation energy:                                               1.540256 eV
  Excitation energy:                                               0.599279 eV
  Excitation energy:                                               3.630332 eV
  Excitation energy:                                               3.443686 eV
  Excitation energy:                                               3.155905 eV
  Excitation energy:                                               2.571411 eV
  Excitation energy:                                               2.186556 eV
  Excitation energy:                                               1.853543 eV
  Excitation energy:                                               0.912566 eV
  Excitation energy:                                               0.313287 eV
  Excitation energy:                                               3.765100 eV
  Excitation energy:                                               3.578453 eV
  Excitation energy:                                               3.290673 eV
  Excitation energy:                                               2.706179 eV
  Excitation energy:                                               2.321323 eV
  Excitation energy:                                               1.988310 eV
  Excitation energy:                                               1.047334 eV
  Excitation energy:                                               0.448055 eV
  Excitation energy:                                               0.134768 eV

                    Orbital Energies (a.u.)
 --------------------------------------------------------------

 Alpha MOs
 -- Occupied --
-11.2397 -11.2381  -1.0297  -0.7854  -0.6340  -0.5810  -0.4984  -0.3747

          Ground-State Mulliken Net Atomic Charges

     Atom                 Charge (a.u.)
  ----------------------------------------
      1 H                     0.053404
      2 C                    -0.106833
      3 H                     0.053428
      4 C                    -0.106824
      5 H                     0.053424
      6 H                     0.053401
  ----------------------------------------
  Sum of atomic charges =     0.000000

                    Cartesian Multipole Moments
 -----------------------------------------------------------------
    Charge (ESU x 10^10)
                -0.0000
    Dipole Moment (Debye)
         X      -0.0000      Y       0.0000      Z      -0.0001
       Tot       0.0002
    Quadrupole Moments (Debye-Ang)
        XX     -12.2604     XY      -0.1018     YY     -12.2988
        XZ       0.0255     YZ       0.3202     ZZ     -15.6077

 Total job time:  154.51s(wall), 468.67s(cpu)
        *  Thank you very much for using Q-Chem.  Have a nice day.  *
