 Q-Chem 5.4 (devel), Q-Chem, Inc., Pleasanton, CA (2021)
 Q-Chem 5.4.1 for Intel X86 EM64T Linux

User input:
--------------------------------------------------------------
$comment
generated from CCJob.Templates
$end

$rem
sym_ignore = true
method = adc(2)
ee_states = 10
basis = cc-pVDZ
mem_static = 1024
mem_total = 40000
adc_davidson_maxiter = 900
adc_davidson_conv = 6
adc_print = 3
adc_prop_es = true
adc_prop_es2es = true
adc_prop_tpa = true
molden_format = True
state_analysis = true
print_orbitals = 15
gen_scfman = false
fde_export_density = true
fde_details = 3
$end

$molecule
0 1
H -0.01966349548861429 -0.2444231457489861 0.025161942936492036
C -1.0778913067988172 -0.5244645753027062 -0.0023118203969720572
H -1.303157660815639 -1.595436432341613 -0.03790745614692898
C -2.044737800798704 0.3937969583972843 0.006661399903042136
H -1.8234628880156154 1.4600836811584106 0.12171132635308048
H -3.0992524349886947 0.11896343555089563 -0.10076767036358367
$end
--------------------------------------------------------------

             Standard Nuclear Orientation (Angstroms)
    I     Atom           X                Y                Z
 ----------------------------------------------------------------
    1      H      -0.0196634955    -0.2444231457     0.0251619429
    2      C      -1.0778913068    -0.5244645753    -0.0023118204
    3      H      -1.3031576608    -1.5954364323    -0.0379074561
    4      C      -2.0447378008     0.3937969584     0.0066613999
    5      H      -1.8234628880     1.4600836812     0.1217113264
    6      H      -3.0992524350     0.1189634356    -0.1007676704
 ----------------------------------------------------------------

   11     -78.0390670032      3.32E-09 Convergence criterion met
 Total energy in the final basis set = -78.03906700
  Excited state 1 (singlet, A)                                     [converged]
  Term symbol:  2 (1) A                                     R^2 =  3.34412e-13
  Excitation energy:                                               8.595408 eV
  Excited state 2 (singlet, A)                                     [converged]
  Term symbol:  3 (1) A                                     R^2 =  6.82702e-13
  Excitation energy:                                               9.031942 eV
  Excited state 3 (singlet, A)                                     [converged]
  Term symbol:  4 (1) A                                     R^2 =  9.67222e-13
  Excitation energy:                                               9.119096 eV
  Excited state 4 (singlet, A)                                     [converged]
  Term symbol:  5 (1) A                                     R^2 =  4.81716e-13
  Excitation energy:                                               9.745457 eV
  Excited state 5 (singlet, A)                                     [converged]
  Term symbol:  6 (1) A                                     R^2 =  1.71743e-11
  Excitation energy:                                              10.136901 eV
  Excited state 6 (singlet, A)                                     [converged]
  Term symbol:  7 (1) A                                     R^2 =  5.14735e-11
  Excitation energy:                                              10.501520 eV
  Excited state 7 (singlet, A)                                     [converged]
  Term symbol:  8 (1) A                                     R^2 =  7.02428e-08
  Excitation energy:                                              11.447895 eV
  Excited state 8 (singlet, A)                                     [converged]
  Term symbol:  9 (1) A                                     R^2 =  1.21955e-08
  Excitation energy:                                              12.048700 eV
  Excited state 9 (singlet, A)                                     [converged]
  Term symbol:  10 (1) A                                    R^2 =  1.71791e-07
  Excitation energy:                                              12.322693 eV
  Excited state 10 (singlet, A)                                     [converged]
  Term symbol:  11 (1) A                                    R^2 =  6.76541e-07
  Excitation energy:                                              12.491046 eV
  Excitation energy:                                               0.436533 eV
  Excitation energy:                                               0.523688 eV
  Excitation energy:                                               0.087154 eV
  Excitation energy:                                               1.150049 eV
  Excitation energy:                                               0.713515 eV
  Excitation energy:                                               0.626361 eV
  Excitation energy:                                               1.541493 eV
  Excitation energy:                                               1.104959 eV
  Excitation energy:                                               1.017805 eV
  Excitation energy:                                               0.391444 eV
  Excitation energy:                                               1.906111 eV
  Excitation energy:                                               1.469578 eV
  Excitation energy:                                               1.382423 eV
  Excitation energy:                                               0.756063 eV
  Excitation energy:                                               0.364618 eV
  Excitation energy:                                               2.852487 eV
  Excitation energy:                                               2.415953 eV
  Excitation energy:                                               2.328799 eV
  Excitation energy:                                               1.702438 eV
  Excitation energy:                                               1.310994 eV
  Excitation energy:                                               0.946376 eV
  Excitation energy:                                               3.453291 eV
  Excitation energy:                                               3.016758 eV
  Excitation energy:                                               2.929603 eV
  Excitation energy:                                               2.303243 eV
  Excitation energy:                                               1.911798 eV
  Excitation energy:                                               1.547180 eV
  Excitation energy:                                               0.600804 eV
  Excitation energy:                                               3.727284 eV
  Excitation energy:                                               3.290751 eV
  Excitation energy:                                               3.203597 eV
  Excitation energy:                                               2.577236 eV
  Excitation energy:                                               2.185791 eV
  Excitation energy:                                               1.821173 eV
  Excitation energy:                                               0.874797 eV
  Excitation energy:                                               0.273993 eV
  Excitation energy:                                               3.895637 eV
  Excitation energy:                                               3.459104 eV
  Excitation energy:                                               3.371949 eV
  Excitation energy:                                               2.745589 eV
  Excitation energy:                                               2.354144 eV
  Excitation energy:                                               1.989526 eV
  Excitation energy:                                               1.043150 eV
  Excitation energy:                                               0.442346 eV
  Excitation energy:                                               0.168353 eV

                    Orbital Energies (a.u.)
 --------------------------------------------------------------

 Alpha MOs
 -- Occupied --
-11.2390 -11.2373  -1.0298  -0.7855  -0.6348  -0.5821  -0.4999  -0.3738

          Ground-State Mulliken Net Atomic Charges

     Atom                 Charge (a.u.)
  ----------------------------------------
      1 H                     0.052744
      2 C                    -0.105423
      3 H                     0.052747
      4 C                    -0.105539
      5 H                     0.052741
      6 H                     0.052731
  ----------------------------------------
  Sum of atomic charges =     0.000000

                    Cartesian Multipole Moments
 -----------------------------------------------------------------
    Charge (ESU x 10^10)
                -0.0000
    Dipole Moment (Debye)
         X      -0.0001      Y       0.0001      Z      -0.0004
       Tot       0.0004
    Quadrupole Moments (Debye-Ang)
        XX     -12.2527     XY      -0.1040     YY     -12.2667
        XZ       0.1561     YZ       0.1979     ZZ     -15.6047

 Total job time:  140.55s(wall), 433.03s(cpu)
        *  Thank you very much for using Q-Chem.  Have a nice day.  *
