 Q-Chem 5.4 (devel), Q-Chem, Inc., Pleasanton, CA (2021)
 Q-Chem 5.4.1 for Intel X86 EM64T Linux

User input:
--------------------------------------------------------------
$comment
generated from CCJob.Templates
$end

$rem
sym_ignore = true
method = adc(2)
ee_states = 10
basis = cc-pVDZ
mem_static = 1024
mem_total = 40000
adc_davidson_maxiter = 900
adc_davidson_conv = 6
adc_print = 3
adc_prop_es = true
adc_prop_es2es = true
adc_prop_tpa = true
molden_format = True
state_analysis = true
print_orbitals = 15
gen_scfman = false
fde_export_density = true
fde_details = 3
$end

$molecule
0 1
H -0.02928029674934769 -0.2421833051876011 0.07023450605910189
C -1.1080319512765906 -0.48888065001824643 -0.009058861395149356
H -1.3147400627120094 -1.5812537904480315 -0.08650537980927689
C -2.059607563006716 0.445468966072773 -0.0008024412016459596
H -1.821002007824809 1.4759505633023429 0.086643404701603
H -3.106433555887554 0.13687863844180553 -0.06999758936675199
$end
--------------------------------------------------------------

             Standard Nuclear Orientation (Angstroms)
    I     Atom           X                Y                Z
 ----------------------------------------------------------------
    1      H      -0.0292802967    -0.2421833052     0.0702345061
    2      C      -1.1080319513    -0.4888806500    -0.0090588614
    3      H      -1.3147400627    -1.5812537904    -0.0865053798
    4      C      -2.0596075630     0.4454689661    -0.0008024412
    5      H      -1.8210020078     1.4759505633     0.0866434047
    6      H      -3.1064335559     0.1368786384    -0.0699975894
 ----------------------------------------------------------------

   11     -78.0380036784      5.92E-09 Convergence criterion met
 Total energy in the final basis set = -78.03800368
  Excited state 1 (singlet, A)                                     [converged]
  Term symbol:  2 (1) A                                     R^2 =  1.78809e-13
  Excitation energy:                                               8.730755 eV
  Excited state 2 (singlet, A)                                     [converged]
  Term symbol:  3 (1) A                                     R^2 =  5.57550e-13
  Excitation energy:                                               8.924999 eV
  Excited state 3 (singlet, A)                                     [converged]
  Term symbol:  4 (1) A                                     R^2 =  1.53859e-13
  Excitation energy:                                               9.133030 eV
  Excited state 4 (singlet, A)                                     [converged]
  Term symbol:  5 (1) A                                     R^2 =  2.00966e-13
  Excitation energy:                                               9.737004 eV
  Excited state 5 (singlet, A)                                     [converged]
  Term symbol:  6 (1) A                                     R^2 =  5.12978e-13
  Excitation energy:                                              10.155885 eV
  Excited state 6 (singlet, A)                                     [converged]
  Term symbol:  7 (1) A                                     R^2 =  6.41515e-13
  Excitation energy:                                              10.518699 eV
  Excited state 7 (singlet, A)                                     [converged]
  Term symbol:  8 (1) A                                     R^2 =  2.44668e-12
  Excitation energy:                                              11.398837 eV
  Excited state 8 (singlet, A)                                     [converged]
  Term symbol:  9 (1) A                                     R^2 =  1.32905e-10
  Excitation energy:                                              12.075908 eV
  Excited state 9 (singlet, A)                                     [converged]
  Term symbol:  10 (1) A                                    R^2 =  9.83783e-09
  Excitation energy:                                              12.342743 eV
  Excited state 10 (singlet, A)                                     [converged]
  Term symbol:  11 (1) A                                    R^2 =  8.20912e-07
  Excitation energy:                                              12.453326 eV
  Excitation energy:                                               0.194244 eV
  Excitation energy:                                               0.402275 eV
  Excitation energy:                                               0.208031 eV
  Excitation energy:                                               1.006248 eV
  Excitation energy:                                               0.812004 eV
  Excitation energy:                                               0.603974 eV
  Excitation energy:                                               1.425129 eV
  Excitation energy:                                               1.230886 eV
  Excitation energy:                                               1.022855 eV
  Excitation energy:                                               0.418881 eV
  Excitation energy:                                               1.787944 eV
  Excitation energy:                                               1.593700 eV
  Excitation energy:                                               1.385669 eV
  Excitation energy:                                               0.781696 eV
  Excitation energy:                                               0.362814 eV
  Excitation energy:                                               2.668081 eV
  Excitation energy:                                               2.473837 eV
  Excitation energy:                                               2.265806 eV
  Excitation energy:                                               1.661833 eV
  Excitation energy:                                               1.242952 eV
  Excitation energy:                                               0.880137 eV
  Excitation energy:                                               3.345153 eV
  Excitation energy:                                               3.150909 eV
  Excitation energy:                                               2.942878 eV
  Excitation energy:                                               2.338904 eV
  Excitation energy:                                               1.920023 eV
  Excitation energy:                                               1.557209 eV
  Excitation energy:                                               0.677071 eV
  Excitation energy:                                               3.611987 eV
  Excitation energy:                                               3.417743 eV
  Excitation energy:                                               3.209713 eV
  Excitation energy:                                               2.605739 eV
  Excitation energy:                                               2.186858 eV
  Excitation energy:                                               1.824043 eV
  Excitation energy:                                               0.943906 eV
  Excitation energy:                                               0.266835 eV
  Excitation energy:                                               3.722571 eV
  Excitation energy:                                               3.528327 eV
  Excitation energy:                                               3.320296 eV
  Excitation energy:                                               2.716322 eV
  Excitation energy:                                               2.297441 eV
  Excitation energy:                                               1.934627 eV
  Excitation energy:                                               1.054490 eV
  Excitation energy:                                               0.377418 eV
  Excitation energy:                                               0.110584 eV

                    Orbital Energies (a.u.)
 --------------------------------------------------------------

 Alpha MOs
 -- Occupied --
-11.2414 -11.2350  -1.0302  -0.7858  -0.6361  -0.5822  -0.4983  -0.3745

          Ground-State Mulliken Net Atomic Charges

     Atom                 Charge (a.u.)
  ----------------------------------------
      1 H                     0.053486
      2 C                    -0.131040
      3 H                     0.056214
      4 C                    -0.077113
      5 H                     0.045957
      6 H                     0.052495
  ----------------------------------------
  Sum of atomic charges =     0.000000

                    Cartesian Multipole Moments
 -----------------------------------------------------------------
    Charge (ESU x 10^10)
                 0.0000
    Dipole Moment (Debye)
         X       0.0095      Y       0.0035      Z       0.0180
       Tot       0.0206
    Quadrupole Moments (Debye-Ang)
        XX     -12.3527     XY      -0.1162     YY     -12.1972
        XZ       0.1406     YZ       0.2195     ZZ     -15.6082

 Total job time:  155.49s(wall), 477.06s(cpu)
        *  Thank you very much for using Q-Chem.  Have a nice day.  *
