 Q-Chem 5.4 (devel), Q-Chem, Inc., Pleasanton, CA (2021)
 Q-Chem 5.4.1 for Intel X86 EM64T Linux

User input:
--------------------------------------------------------------
$comment
generated from CCJob.Templates
$end

$rem
sym_ignore = true
method = adc(2)
ee_states = 10
basis = cc-pVDZ
mem_static = 1024
mem_total = 40000
adc_davidson_maxiter = 900
adc_davidson_conv = 6
adc_print = 3
adc_prop_es = true
adc_prop_es2es = true
adc_prop_tpa = true
molden_format = True
state_analysis = true
print_orbitals = 15
gen_scfman = false
fde_export_density = true
fde_details = 3
$end

$molecule
0 1
H -0.0348278765 -0.2442097827 0.0636489606
C -1.0765972949 -0.5242748755 -0.0023551776
H -1.313264467 -1.5767591607 -0.0757276926
C -2.043634118 0.3526884087 0.0061254933
H -1.8137616575 1.4459188338 0.0804456828
H -3.085977293 0.114931858 -0.0593381042
$end
--------------------------------------------------------------

             Standard Nuclear Orientation (Angstroms)
    I     Atom           X                Y                Z
 ----------------------------------------------------------------
    1      H      -0.0348278765    -0.2442097827     0.0636489606
    2      C      -1.0765972949    -0.5242748755    -0.0023551776
    3      H      -1.3132644670    -1.5767591607    -0.0757276926
    4      C      -2.0436341180     0.3526884087     0.0061254933
    5      H      -1.8137616575     1.4459188338     0.0804456828
    6      H      -3.0859772930     0.1149318580    -0.0593381042
 ----------------------------------------------------------------

   11     -78.0384974119      6.21E-09 Convergence criterion met
 Total energy in the final basis set = -78.03849741
  Excited state 1 (singlet, A)                                     [converged]
  Term symbol:  2 (1) A                                     R^2 =  2.08485e-13
  Excitation energy:                                               8.977999 eV
  Excited state 2 (singlet, A)                                     [converged]
  Term symbol:  3 (1) A                                     R^2 =  8.21776e-14
  Excitation energy:                                               9.004698 eV
  Excited state 3 (singlet, A)                                     [converged]
  Term symbol:  4 (1) A                                     R^2 =  1.06921e-13
  Excitation energy:                                               9.278818 eV
  Excited state 4 (singlet, A)                                     [converged]
  Term symbol:  5 (1) A                                     R^2 =  2.45410e-13
  Excitation energy:                                               9.847773 eV
  Excited state 5 (singlet, A)                                     [converged]
  Term symbol:  6 (1) A                                     R^2 =  4.26936e-13
  Excitation energy:                                              10.374258 eV
  Excited state 6 (singlet, A)                                     [converged]
  Term symbol:  7 (1) A                                     R^2 =  8.86655e-13
  Excitation energy:                                              10.799792 eV
  Excited state 7 (singlet, A)                                     [converged]
  Term symbol:  8 (1) A                                     R^2 =  3.29138e-11
  Excitation energy:                                              11.359006 eV
  Excited state 8 (singlet, A)                                     [converged]
  Term symbol:  9 (1) A                                     R^2 =  1.66255e-09
  Excitation energy:                                              12.307213 eV
  Excited state 9 (singlet, A)                                     [converged]
  Term symbol:  10 (1) A                                    R^2 =  7.70304e-07
  Excitation energy:                                              12.373949 eV
  Excited state 10 (singlet, A)                                     [converged]
  Term symbol:  11 (1) A                                    R^2 =  9.39778e-07
  Excitation energy:                                              12.559095 eV
  Excitation energy:                                               0.026699 eV
  Excitation energy:                                               0.300819 eV
  Excitation energy:                                               0.274120 eV
  Excitation energy:                                               0.869774 eV
  Excitation energy:                                               0.843075 eV
  Excitation energy:                                               0.568955 eV
  Excitation energy:                                               1.396259 eV
  Excitation energy:                                               1.369559 eV
  Excitation energy:                                               1.095439 eV
  Excitation energy:                                               0.526484 eV
  Excitation energy:                                               1.821793 eV
  Excitation energy:                                               1.795094 eV
  Excitation energy:                                               1.520974 eV
  Excitation energy:                                               0.952019 eV
  Excitation energy:                                               0.425534 eV
  Excitation energy:                                               2.381007 eV
  Excitation energy:                                               2.354308 eV
  Excitation energy:                                               2.080188 eV
  Excitation energy:                                               1.511233 eV
  Excitation energy:                                               0.984749 eV
  Excitation energy:                                               0.559214 eV
  Excitation energy:                                               3.329214 eV
  Excitation energy:                                               3.302514 eV
  Excitation energy:                                               3.028394 eV
  Excitation energy:                                               2.459439 eV
  Excitation energy:                                               1.932955 eV
  Excitation energy:                                               1.507421 eV
  Excitation energy:                                               0.948206 eV
  Excitation energy:                                               3.395950 eV
  Excitation energy:                                               3.369251 eV
  Excitation energy:                                               3.095130 eV
  Excitation energy:                                               2.526176 eV
  Excitation energy:                                               1.999691 eV
  Excitation energy:                                               1.574157 eV
  Excitation energy:                                               1.014943 eV
  Excitation energy:                                               0.066736 eV
  Excitation energy:                                               3.581095 eV
  Excitation energy:                                               3.554396 eV
  Excitation energy:                                               3.280276 eV
  Excitation energy:                                               2.711321 eV
  Excitation energy:                                               2.184837 eV
  Excitation energy:                                               1.759303 eV
  Excitation energy:                                               1.200088 eV
  Excitation energy:                                               0.251882 eV
  Excitation energy:                                               0.185146 eV

                    Orbital Energies (a.u.)
 --------------------------------------------------------------

 Alpha MOs
 -- Occupied --
-11.2334 -11.2303  -1.0396  -0.7856  -0.6399  -0.5889  -0.4950  -0.3811

          Ground-State Mulliken Net Atomic Charges

     Atom                 Charge (a.u.)
  ----------------------------------------
      1 H                     0.048031
      2 C                    -0.081925
      3 H                     0.044665
      4 C                    -0.105337
      5 H                     0.049747
      6 H                     0.044819
  ----------------------------------------
  Sum of atomic charges =     0.000000

                    Cartesian Multipole Moments
 -----------------------------------------------------------------
    Charge (ESU x 10^10)
                 0.0000
    Dipole Moment (Debye)
         X      -0.0144      Y      -0.0158      Z      -0.0038
       Tot       0.0217
    Quadrupole Moments (Debye-Ang)
        XX     -12.0663     XY      -0.0470     YY     -12.4292
        XZ       0.1624     YZ       0.1771     ZZ     -15.4677

 Total job time:  73.53s(wall), 237.47s(cpu)
        *  Thank you very much for using Q-Chem.  Have a nice day.  *
