 Q-Chem 5.4 (devel), Q-Chem, Inc., Pleasanton, CA (2021)
 Q-Chem 5.4.1 for Intel X86 EM64T Linux

User input:
--------------------------------------------------------------
$comment
generated from CCJob.Templates
$end

$rem
sym_ignore = true
method = adc(2)
ee_states = 10
basis = cc-pVDZ
mem_static = 1024
mem_total = 40000
adc_davidson_maxiter = 900
adc_davidson_conv = 6
adc_print = 3
adc_prop_es = true
adc_prop_es2es = true
adc_prop_tpa = true
molden_format = True
state_analysis = true
print_orbitals = 15
gen_scfman = false
fde_export_density = true
fde_details = 3
$end

$molecule
0 1
H 0.0051721235 -0.2442097827 0.0636489606
C -1.0765972949 -0.5242748755 -0.0023551776
H -1.313264467 -1.5767591607 -0.0757276926
C -2.043634118 0.3926884087 0.0061254933
H -1.8137616575 1.4459188338 0.0804456828
H -3.085977293 0.114931858 -0.0593381042
$end
--------------------------------------------------------------

             Standard Nuclear Orientation (Angstroms)
    I     Atom           X                Y                Z
 ----------------------------------------------------------------
    1      H       0.0051721235    -0.2442097827     0.0636489606
    2      C      -1.0765972949    -0.5242748755    -0.0023551776
    3      H      -1.3132644670    -1.5767591607    -0.0757276926
    4      C      -2.0436341180     0.3926884087     0.0061254933
    5      H      -1.8137616575     1.4459188338     0.0804456828
    6      H      -3.0859772930     0.1149318580    -0.0593381042
 ----------------------------------------------------------------

   11     -78.0390837493      6.10E-09 Convergence criterion met
 Total energy in the final basis set = -78.03908375
  Excited state 1 (singlet, A)                                     [converged]
  Term symbol:  2 (1) A                                     R^2 =  4.23034e-13
  Excitation energy:                                               8.739152 eV
  Excited state 2 (singlet, A)                                     [converged]
  Term symbol:  3 (1) A                                     R^2 =  5.36936e-13
  Excitation energy:                                               8.992564 eV
  Excited state 3 (singlet, A)                                     [converged]
  Term symbol:  4 (1) A                                     R^2 =  4.01496e-13
  Excitation energy:                                               9.136959 eV
  Excited state 4 (singlet, A)                                     [converged]
  Term symbol:  5 (1) A                                     R^2 =  2.00559e-13
  Excitation energy:                                               9.759939 eV
  Excited state 5 (singlet, A)                                     [converged]
  Term symbol:  6 (1) A                                     R^2 =  2.69316e-13
  Excitation energy:                                              10.182434 eV
  Excited state 6 (singlet, A)                                     [converged]
  Term symbol:  7 (1) A                                     R^2 =  4.44250e-13
  Excitation energy:                                              10.517775 eV
  Excited state 7 (singlet, A)                                     [converged]
  Term symbol:  8 (1) A                                     R^2 =  1.77968e-10
  Excitation energy:                                              11.463631 eV
  Excited state 8 (singlet, A)                                     [converged]
  Term symbol:  9 (1) A                                     R^2 =  4.94568e-10
  Excitation energy:                                              12.115199 eV
  Excited state 9 (singlet, A)                                     [converged]
  Term symbol:  10 (1) A                                    R^2 =  6.16892e-09
  Excitation energy:                                              12.375848 eV
  Excited state 10 (singlet, A)                                     [converged]
  Term symbol:  11 (1) A                                    R^2 =  7.45038e-07
  Excitation energy:                                              12.515303 eV
  Excitation energy:                                               0.253412 eV
  Excitation energy:                                               0.397808 eV
  Excitation energy:                                               0.144395 eV
  Excitation energy:                                               1.020788 eV
  Excitation energy:                                               0.767375 eV
  Excitation energy:                                               0.622980 eV
  Excitation energy:                                               1.443282 eV
  Excitation energy:                                               1.189870 eV
  Excitation energy:                                               1.045474 eV
  Excitation energy:                                               0.422495 eV
  Excitation energy:                                               1.778623 eV
  Excitation energy:                                               1.525211 eV
  Excitation energy:                                               1.380816 eV
  Excitation energy:                                               0.757836 eV
  Excitation energy:                                               0.335341 eV
  Excitation energy:                                               2.724479 eV
  Excitation energy:                                               2.471067 eV
  Excitation energy:                                               2.326671 eV
  Excitation energy:                                               1.703691 eV
  Excitation energy:                                               1.281197 eV
  Excitation energy:                                               0.945856 eV
  Excitation energy:                                               3.376047 eV
  Excitation energy:                                               3.122635 eV
  Excitation energy:                                               2.978239 eV
  Excitation energy:                                               2.355259 eV
  Excitation energy:                                               1.932765 eV
  Excitation energy:                                               1.597424 eV
  Excitation energy:                                               0.651568 eV
  Excitation energy:                                               3.636696 eV
  Excitation energy:                                               3.383284 eV
  Excitation energy:                                               3.238888 eV
  Excitation energy:                                               2.615909 eV
  Excitation energy:                                               2.193414 eV
  Excitation energy:                                               1.858073 eV
  Excitation energy:                                               0.912217 eV
  Excitation energy:                                               0.260649 eV
  Excitation energy:                                               3.776152 eV
  Excitation energy:                                               3.522739 eV
  Excitation energy:                                               3.378344 eV
  Excitation energy:                                               2.755364 eV
  Excitation energy:                                               2.332870 eV
  Excitation energy:                                               1.997528 eV
  Excitation energy:                                               1.051673 eV
  Excitation energy:                                               0.400105 eV
  Excitation energy:                                               0.139456 eV

                    Orbital Energies (a.u.)
 --------------------------------------------------------------

 Alpha MOs
 -- Occupied --
-11.2388 -11.2346  -1.0310  -0.7865  -0.6377  -0.5812  -0.5012  -0.3744

          Ground-State Mulliken Net Atomic Charges

     Atom                 Charge (a.u.)
  ----------------------------------------
      1 H                     0.058064
      2 C                    -0.114110
      3 H                     0.048962
      4 C                    -0.089189
      5 H                     0.047837
      6 H                     0.048437
  ----------------------------------------
  Sum of atomic charges =     0.000000

                    Cartesian Multipole Moments
 -----------------------------------------------------------------
    Charge (ESU x 10^10)
                 0.0000
    Dipole Moment (Debye)
         X      -0.0204      Y      -0.0018      Z      -0.0012
       Tot       0.0205
    Quadrupole Moments (Debye-Ang)
        XX     -12.1567     XY      -0.0560     YY     -12.2891
        XZ       0.1559     YZ       0.1949     ZZ     -15.5893

 Total job time:  72.71s(wall), 247.18s(cpu)
        *  Thank you very much for using Q-Chem.  Have a nice day.  *
