 Q-Chem 5.4 (devel), Q-Chem, Inc., Pleasanton, CA (2021)
 Q-Chem 5.4.1 for Intel X86 EM64T Linux

User input:
--------------------------------------------------------------
$comment
generated from CCJob.Templates
$end

$rem
sym_ignore = true
method = adc(2)
ee_states = 10
basis = cc-pVDZ
mem_static = 1024
mem_total = 40000
adc_davidson_maxiter = 900
adc_davidson_conv = 6
adc_print = 3
adc_prop_es = true
adc_prop_es2es = true
adc_prop_tpa = true
molden_format = True
state_analysis = true
print_orbitals = 15
gen_scfman = false
fde_export_density = true
fde_details = 3
$end

$molecule
0 1
H -0.013543899294904974 -0.283946088831665 0.06318218619785326
C -1.0910631407279574 -0.5119281010668115 -0.0022426204555871967
H -1.263834077952456 -1.5991641093734372 -0.07616625920623442
C -2.057907074730026 0.4063298326349244 0.006730759844228129
H -1.784135865154229 1.4563549641268583 0.0834502832947259
H -3.0931292387959393 0.07943801247040336 -0.06274630710207287
$end
--------------------------------------------------------------

             Standard Nuclear Orientation (Angstroms)
    I     Atom           X                Y                Z
 ----------------------------------------------------------------
    1      H      -0.0135438993    -0.2839460888     0.0631821862
    2      C      -1.0910631407    -0.5119281011    -0.0022426205
    3      H      -1.2638340780    -1.5991641094    -0.0761662592
    4      C      -2.0579070747     0.4063298326     0.0067307598
    5      H      -1.7841358652     1.4563549641     0.0834502833
    6      H      -3.0931292388     0.0794380125    -0.0627463071
 ----------------------------------------------------------------

   11     -78.0378405095      6.52E-09 Convergence criterion met
 Total energy in the final basis set = -78.03784051
  Excited state 1 (singlet, A)                                     [converged]
  Term symbol:  2 (1) A                                     R^2 =  7.94552e-14
  Excitation energy:                                               8.732221 eV
  Excited state 2 (singlet, A)                                     [converged]
  Term symbol:  3 (1) A                                     R^2 =  5.12331e-13
  Excitation energy:                                               8.908813 eV
  Excited state 3 (singlet, A)                                     [converged]
  Term symbol:  4 (1) A                                     R^2 =  9.54742e-14
  Excitation energy:                                               9.132003 eV
  Excited state 4 (singlet, A)                                     [converged]
  Term symbol:  5 (1) A                                     R^2 =  7.01920e-14
  Excitation energy:                                               9.731896 eV
  Excited state 5 (singlet, A)                                     [converged]
  Term symbol:  6 (1) A                                     R^2 =  1.12575e-13
  Excitation energy:                                              10.141620 eV
  Excited state 6 (singlet, A)                                     [converged]
  Term symbol:  7 (1) A                                     R^2 =  3.12646e-13
  Excitation energy:                                              10.508111 eV
  Excited state 7 (singlet, A)                                     [converged]
  Term symbol:  8 (1) A                                     R^2 =  3.29723e-09
  Excitation energy:                                              11.375628 eV
  Excited state 8 (singlet, A)                                     [converged]
  Term symbol:  9 (1) A                                     R^2 =  4.08455e-08
  Excitation energy:                                              12.076308 eV
  Excited state 9 (singlet, A)                                     [converged]
  Term symbol:  10 (1) A                                    R^2 =  8.35976e-07
  Excitation energy:                                              12.341685 eV
  Excited state 10 (singlet, A)                                     [converged]
  Term symbol:  11 (1) A                                    R^2 =  3.38981e-07
  Excitation energy:                                              12.432914 eV
  Excitation energy:                                               0.176593 eV
  Excitation energy:                                               0.399782 eV
  Excitation energy:                                               0.223189 eV
  Excitation energy:                                               0.999675 eV
  Excitation energy:                                               0.823082 eV
  Excitation energy:                                               0.599893 eV
  Excitation energy:                                               1.409399 eV
  Excitation energy:                                               1.232806 eV
  Excitation energy:                                               1.009617 eV
  Excitation energy:                                               0.409724 eV
  Excitation energy:                                               1.775890 eV
  Excitation energy:                                               1.599297 eV
  Excitation energy:                                               1.376108 eV
  Excitation energy:                                               0.776215 eV
  Excitation energy:                                               0.366491 eV
  Excitation energy:                                               2.643408 eV
  Excitation energy:                                               2.466815 eV
  Excitation energy:                                               2.243626 eV
  Excitation energy:                                               1.643733 eV
  Excitation energy:                                               1.234009 eV
  Excitation energy:                                               0.867518 eV
  Excitation energy:                                               3.344088 eV
  Excitation energy:                                               3.167495 eV
  Excitation energy:                                               2.944306 eV
  Excitation energy:                                               2.344413 eV
  Excitation energy:                                               1.934689 eV
  Excitation energy:                                               1.568198 eV
  Excitation energy:                                               0.700680 eV
  Excitation energy:                                               3.609465 eV
  Excitation energy:                                               3.432872 eV
  Excitation energy:                                               3.209683 eV
  Excitation energy:                                               2.609790 eV
  Excitation energy:                                               2.200065 eV
  Excitation energy:                                               1.833575 eV
  Excitation energy:                                               0.966057 eV
  Excitation energy:                                               0.265377 eV
  Excitation energy:                                               3.700693 eV
  Excitation energy:                                               3.524101 eV
  Excitation energy:                                               3.300911 eV
  Excitation energy:                                               2.701018 eV
  Excitation energy:                                               2.291294 eV
  Excitation energy:                                               1.924803 eV
  Excitation energy:                                               1.057286 eV
  Excitation energy:                                               0.356606 eV
  Excitation energy:                                               0.091229 eV

                    Orbital Energies (a.u.)
 --------------------------------------------------------------

 Alpha MOs
 -- Occupied --
-11.2396 -11.2372  -1.0301  -0.7855  -0.6358  -0.5817  -0.4976  -0.3746

          Ground-State Mulliken Net Atomic Charges

     Atom                 Charge (a.u.)
  ----------------------------------------
      1 H                     0.050375
      2 C                    -0.123950
      3 H                     0.050388
      4 C                    -0.086183
      5 H                     0.054688
      6 H                     0.054683
  ----------------------------------------
  Sum of atomic charges =     0.000000

                    Cartesian Multipole Moments
 -----------------------------------------------------------------
    Charge (ESU x 10^10)
                -0.0000
    Dipole Moment (Debye)
         X       0.0290      Y      -0.0275      Z      -0.0002
       Tot       0.0400
    Quadrupole Moments (Debye-Ang)
        XX     -12.3460     XY      -0.0659     YY     -12.2659
        XZ       0.1563     YZ       0.1983     ZZ     -15.6170

 Total job time:  144.06s(wall), 436.26s(cpu)
        *  Thank you very much for using Q-Chem.  Have a nice day.  *
