 Q-Chem 5.4 (devel), Q-Chem, Inc., Pleasanton, CA (2021)
 Q-Chem 5.4.1 for Intel X86 EM64T Linux

User input:
--------------------------------------------------------------
$comment
generated from CCJob.Templates
$end

$rem
sym_ignore = true
method = adc(2)
ee_states = 10
basis = cc-pVDZ
mem_static = 1024
mem_total = 40000
adc_davidson_maxiter = 900
adc_davidson_conv = 6
adc_print = 3
adc_prop_es = true
adc_prop_es2es = true
adc_prop_tpa = true
molden_format = True
state_analysis = true
print_orbitals = 15
gen_scfman = false
fde_export_density = true
fde_details = 3
$end

$molecule
0 1
H -0.058603027647233935 -0.2573939492867427 0.06271186451485079
C -1.0671923433151786 -0.5346403386230996 -0.002459260431288409
H -1.2926559779215216 -1.5554258599707314 -0.07501769762928233
C -2.055473804283235 0.40405920172140897 0.0067065999314184525
H -1.8300473706762415 1.4248867890788461 0.07924684313006258
H -3.0641021030604647 0.12682223878447996 -0.058390227216099204
$end
--------------------------------------------------------------

             Standard Nuclear Orientation (Angstroms)
    I     Atom           X                Y                Z
 ----------------------------------------------------------------
    1      H      -0.0586030276    -0.2573939493     0.0627118645
    2      C      -1.0671923433    -0.5346403386    -0.0024592604
    3      H      -1.2926559779    -1.5554258600    -0.0750176976
    4      C      -2.0554738043     0.4040592017     0.0067065999
    5      H      -1.8300473707     1.4248867891     0.0792468431
    6      H      -3.0641021031     0.1268222388    -0.0583902272
 ----------------------------------------------------------------

   11     -78.0342529793      1.22E-09 Convergence criterion met
 Total energy in the final basis set = -78.03425298
  Excited state 1 (singlet, A)                                     [converged]
  Term symbol:  2 (1) A                                     R^2 =  1.59626e-13
  Excitation energy:                                               8.469465 eV
  Excited state 2 (singlet, A)                                     [converged]
  Term symbol:  3 (1) A                                     R^2 =  6.34030e-14
  Excitation energy:                                               9.161678 eV
  Excited state 3 (singlet, A)                                     [converged]
  Term symbol:  4 (1) A                                     R^2 =  5.18582e-14
  Excitation energy:                                               9.172618 eV
  Excited state 4 (singlet, A)                                     [converged]
  Term symbol:  5 (1) A                                     R^2 =  9.33742e-14
  Excitation energy:                                               9.979085 eV
  Excited state 5 (singlet, A)                                     [converged]
  Term symbol:  6 (1) A                                     R^2 =  7.50314e-14
  Excitation energy:                                              10.061681 eV
  Excited state 6 (singlet, A)                                     [converged]
  Term symbol:  7 (1) A                                     R^2 =  8.98415e-14
  Excitation energy:                                              10.438084 eV
  Excited state 7 (singlet, A)                                     [converged]
  Term symbol:  8 (1) A                                     R^2 =  9.31959e-13
  Excitation energy:                                              11.957518 eV
  Excited state 8 (singlet, A)                                     [converged]
  Term symbol:  9 (1) A                                     R^2 =  3.88688e-13
  Excitation energy:                                              12.091830 eV
  Excited state 9 (singlet, A)                                     [converged]
  Term symbol:  10 (1) A                                    R^2 =  3.25880e-12
  Excitation energy:                                              12.334674 eV
  Excited state 10 (singlet, A)                                     [converged]
  Term symbol:  11 (1) A                                    R^2 =  8.93221e-07
  Excitation energy:                                              13.163260 eV
  Excitation energy:                                               0.692213 eV
  Excitation energy:                                               0.703154 eV
  Excitation energy:                                               0.010941 eV
  Excitation energy:                                               1.509620 eV
  Excitation energy:                                               0.817407 eV
  Excitation energy:                                               0.806466 eV
  Excitation energy:                                               1.592216 eV
  Excitation energy:                                               0.900003 eV
  Excitation energy:                                               0.889062 eV
  Excitation energy:                                               0.082596 eV
  Excitation energy:                                               1.968620 eV
  Excitation energy:                                               1.276407 eV
  Excitation energy:                                               1.265466 eV
  Excitation energy:                                               0.459000 eV
  Excitation energy:                                               0.376404 eV
  Excitation energy:                                               3.488054 eV
  Excitation energy:                                               2.795840 eV
  Excitation energy:                                               2.784900 eV
  Excitation energy:                                               1.978434 eV
  Excitation energy:                                               1.895837 eV
  Excitation energy:                                               1.519434 eV
  Excitation energy:                                               3.622366 eV
  Excitation energy:                                               2.930152 eV
  Excitation energy:                                               2.919212 eV
  Excitation energy:                                               2.112746 eV
  Excitation energy:                                               2.030149 eV
  Excitation energy:                                               1.653746 eV
  Excitation energy:                                               0.134312 eV
  Excitation energy:                                               3.865209 eV
  Excitation energy:                                               3.172996 eV
  Excitation energy:                                               3.162055 eV
  Excitation energy:                                               2.355589 eV
  Excitation energy:                                               2.272993 eV
  Excitation energy:                                               1.896589 eV
  Excitation energy:                                               0.377156 eV
  Excitation energy:                                               0.242844 eV
  Excitation energy:                                               4.693795 eV
  Excitation energy:                                               4.001582 eV
  Excitation energy:                                               3.990641 eV
  Excitation energy:                                               3.184175 eV
  Excitation energy:                                               3.101579 eV
  Excitation energy:                                               2.725175 eV
  Excitation energy:                                               1.205741 eV
  Excitation energy:                                               1.071429 eV
  Excitation energy:                                               0.828586 eV

                    Orbital Energies (a.u.)
 --------------------------------------------------------------

 Alpha MOs
 -- Occupied --
-11.2323 -11.2309  -1.0283  -0.8064  -0.6490  -0.5806  -0.5203  -0.3659

          Ground-State Mulliken Net Atomic Charges

     Atom                 Charge (a.u.)
  ----------------------------------------
      1 H                     0.038531
      2 C                    -0.077013
      3 H                     0.038499
      4 C                    -0.077065
      5 H                     0.038509
      6 H                     0.038539
  ----------------------------------------
  Sum of atomic charges =     0.000000

                    Cartesian Multipole Moments
 -----------------------------------------------------------------
    Charge (ESU x 10^10)
                 0.0000
    Dipole Moment (Debye)
         X      -0.0000      Y      -0.0000      Z       0.0000
       Tot       0.0000
    Quadrupole Moments (Debye-Ang)
        XX     -12.1575     XY      -0.1344     YY     -12.1740
        XZ       0.1528     YZ       0.1952     ZZ     -15.4912

 Total job time:  149.40s(wall), 461.31s(cpu)
        *  Thank you very much for using Q-Chem.  Have a nice day.  *
