 Q-Chem 5.4 (devel), Q-Chem, Inc., Pleasanton, CA (2021)
 Q-Chem 5.4.1 for Intel X86 EM64T Linux

User input:
--------------------------------------------------------------
$comment
generated from CCJob.Templates
$end

$rem
sym_ignore = true
method = adc(2)
ee_states = 10
basis = cc-pVDZ
mem_static = 1024
mem_total = 40000
adc_davidson_maxiter = 900
adc_davidson_conv = 6
adc_print = 3
adc_prop_es = true
adc_prop_es2es = true
adc_prop_tpa = true
molden_format = True
state_analysis = true
print_orbitals = 15
gen_scfman = false
fde_export_density = true
fde_details = 3
$end

$molecule
0 1
H -0.021789571629185357 -0.2478752820080896 0.06506081329205016
C -1.079725523018222 -0.5226970750929013 -0.002346092397963824
H -1.3003151925932945 -1.5927548641654774 -0.07763616249280988
C -2.042945472581774 0.3921211181928989 0.00659301989796238
H -1.8223951360067174 1.4621908012654734 0.08186290399280939
H -3.1008918870708158 0.1173106355081021 -0.06073529999204582
$end
--------------------------------------------------------------

             Standard Nuclear Orientation (Angstroms)
    I     Atom           X                Y                Z
 ----------------------------------------------------------------
    1      H      -0.0217895716    -0.2478752820     0.0650608133
    2      C      -1.0797255230    -0.5226970751    -0.0023460924
    3      H      -1.3003151926    -1.5927548642    -0.0776361625
    4      C      -2.0429454726     0.3921211182     0.0065930199
    5      H      -1.8223951360     1.4621908013     0.0818629040
    6      H      -3.1008918871     0.1173106355    -0.0607353000
 ----------------------------------------------------------------

   10     -78.0397271332      3.64E-09 Convergence criterion met
 Total energy in the final basis set = -78.03972713
  Excited state 1 (singlet, A)                                     [converged]
  Term symbol:  2 (1) A                                     R^2 =  3.63430e-13
  Excitation energy:                                               8.775086 eV
  Excited state 2 (singlet, A)                                     [converged]
  Term symbol:  3 (1) A                                     R^2 =  5.16073e-13
  Excitation energy:                                               8.950010 eV
  Excited state 3 (singlet, A)                                     [converged]
  Term symbol:  4 (1) A                                     R^2 =  2.89985e-13
  Excitation energy:                                               9.166903 eV
  Excited state 4 (singlet, A)                                     [converged]
  Term symbol:  5 (1) A                                     R^2 =  3.47552e-13
  Excitation energy:                                               9.742098 eV
  Excited state 5 (singlet, A)                                     [converged]
  Term symbol:  6 (1) A                                     R^2 =  7.05908e-13
  Excitation energy:                                              10.186928 eV
  Excited state 6 (singlet, A)                                     [converged]
  Term symbol:  7 (1) A                                     R^2 =  7.82709e-13
  Excitation energy:                                              10.570655 eV
  Excited state 7 (singlet, A)                                     [converged]
  Term symbol:  8 (1) A                                     R^2 =  1.14101e-09
  Excitation energy:                                              11.408404 eV
  Excited state 8 (singlet, A)                                     [converged]
  Term symbol:  9 (1) A                                     R^2 =  5.95334e-08
  Excitation energy:                                              12.093645 eV
  Excited state 9 (singlet, A)                                     [converged]
  Term symbol:  10 (1) A                                    R^2 =  7.13411e-07
  Excitation energy:                                              12.374046 eV
  Excited state 10 (singlet, A)                                     [converged]
  Term symbol:  11 (1) A                                    R^2 =  3.56982e-08
  Excitation energy:                                              12.435816 eV
  Excitation energy:                                               0.174924 eV
  Excitation energy:                                               0.391817 eV
  Excitation energy:                                               0.216893 eV
  Excitation energy:                                               0.967011 eV
  Excitation energy:                                               0.792088 eV
  Excitation energy:                                               0.575195 eV
  Excitation energy:                                               1.411842 eV
  Excitation energy:                                               1.236918 eV
  Excitation energy:                                               1.020025 eV
  Excitation energy:                                               0.444831 eV
  Excitation energy:                                               1.795568 eV
  Excitation energy:                                               1.620645 eV
  Excitation energy:                                               1.403752 eV
  Excitation energy:                                               0.828557 eV
  Excitation energy:                                               0.383726 eV
  Excitation energy:                                               2.633318 eV
  Excitation energy:                                               2.458394 eV
  Excitation energy:                                               2.241501 eV
  Excitation energy:                                               1.666306 eV
  Excitation energy:                                               1.221476 eV
  Excitation energy:                                               0.837749 eV
  Excitation energy:                                               3.318559 eV
  Excitation energy:                                               3.143635 eV
  Excitation energy:                                               2.926742 eV
  Excitation energy:                                               2.351548 eV
  Excitation energy:                                               1.906717 eV
  Excitation energy:                                               1.522991 eV
  Excitation energy:                                               0.685241 eV
  Excitation energy:                                               3.598960 eV
  Excitation energy:                                               3.424036 eV
  Excitation energy:                                               3.207143 eV
  Excitation energy:                                               2.631948 eV
  Excitation energy:                                               2.187118 eV
  Excitation energy:                                               1.803391 eV
  Excitation energy:                                               0.965642 eV
  Excitation energy:                                               0.280401 eV
  Excitation energy:                                               3.660730 eV
  Excitation energy:                                               3.485806 eV
  Excitation energy:                                               3.268913 eV
  Excitation energy:                                               2.693719 eV
  Excitation energy:                                               2.248888 eV
  Excitation energy:                                               1.865162 eV
  Excitation energy:                                               1.027412 eV
  Excitation energy:                                               0.342171 eV
  Excitation energy:                                               0.061770 eV

                    Orbital Energies (a.u.)
 --------------------------------------------------------------

 Alpha MOs
 -- Occupied --
-11.2383 -11.2366  -1.0313  -0.7853  -0.6348  -0.5837  -0.4981  -0.3757

          Ground-State Mulliken Net Atomic Charges

     Atom                 Charge (a.u.)
  ----------------------------------------
      1 H                     0.052118
      2 C                    -0.104240
      3 H                     0.052128
      4 C                    -0.104248
      5 H                     0.052126
      6 H                     0.052116
  ----------------------------------------
  Sum of atomic charges =     0.000000

                    Cartesian Multipole Moments
 -----------------------------------------------------------------
    Charge (ESU x 10^10)
                -0.0000
    Dipole Moment (Debye)
         X      -0.0000      Y       0.0000      Z       0.0000
       Tot       0.0000
    Quadrupole Moments (Debye-Ang)
        XX     -12.2477     XY      -0.1164     YY     -12.2628
        XZ       0.1545     YZ       0.1969     ZZ     -15.5939

 Total job time:  134.15s(wall), 408.32s(cpu)
        *  Thank you very much for using Q-Chem.  Have a nice day.  *
