 Q-Chem 5.4 (devel), Q-Chem, Inc., Pleasanton, CA (2021)
 Q-Chem 5.4.1 for Intel X86 EM64T Linux

User input:
--------------------------------------------------------------
$comment
generated from CCJob.Templates
$end

$rem
sym_ignore = true
method = adc(2)
ee_states = 10
basis = cc-pVDZ
mem_static = 1024
mem_total = 40000
adc_davidson_maxiter = 900
adc_davidson_conv = 6
adc_print = 3
adc_prop_es = true
adc_prop_es2es = true
adc_prop_tpa = true
molden_format = True
state_analysis = true
print_orbitals = 15
gen_scfman = false
fde_export_density = true
fde_details = 3
$end

$molecule
0 1
H -0.01987837589807565 -0.25095570518917454 0.08207866227169602
C -1.072407867783148 -0.525089535180181 0.006421778030661787
H -1.3012803806860516 -1.5910153125620297 -0.10169673421243824
C -2.0328478029279746 0.3994445573993021 0.06401754964456557
H -1.8163827288155783 1.4618808014066567 0.1251061962855901
H -3.09775659570344 0.12181815443421602 -0.058570308398572746
$end
--------------------------------------------------------------

             Standard Nuclear Orientation (Angstroms)
    I     Atom           X                Y                Z
 ----------------------------------------------------------------
    1      H      -0.0198783759    -0.2509557052     0.0820786623
    2      C      -1.0724078678    -0.5250895352     0.0064217780
    3      H      -1.3012803807    -1.5910153126    -0.1016967342
    4      C      -2.0328478029     0.3994445574     0.0640175496
    5      H      -1.8163827288     1.4618808014     0.1251061963
    6      H      -3.0977565957     0.1218181544    -0.0585703084
 ----------------------------------------------------------------

   11     -78.0390746891      8.15E-09 Convergence criterion met
 Total energy in the final basis set = -78.03907469
  Excited state 1 (singlet, A)                                     [converged]
  Term symbol:  2 (1) A                                     R^2 =  2.99451e-13
  Excitation energy:                                               8.716083 eV
  Excited state 2 (singlet, A)                                     [converged]
  Term symbol:  3 (1) A                                     R^2 =  5.46026e-13
  Excitation energy:                                               8.932323 eV
  Excited state 3 (singlet, A)                                     [converged]
  Term symbol:  4 (1) A                                     R^2 =  6.41819e-14
  Excitation energy:                                               9.136731 eV
  Excited state 4 (singlet, A)                                     [converged]
  Term symbol:  5 (1) A                                     R^2 =  5.03259e-13
  Excitation energy:                                               9.736797 eV
  Excited state 5 (singlet, A)                                     [converged]
  Term symbol:  6 (1) A                                     R^2 =  1.98123e-12
  Excitation energy:                                              10.150728 eV
  Excited state 6 (singlet, A)                                     [converged]
  Term symbol:  7 (1) A                                     R^2 =  1.65553e-11
  Excitation energy:                                              10.507917 eV
  Excited state 7 (singlet, A)                                     [converged]
  Term symbol:  8 (1) A                                     R^2 =  1.95764e-09
  Excitation energy:                                              11.423838 eV
  Excited state 8 (singlet, A)                                     [converged]
  Term symbol:  9 (1) A                                     R^2 =  8.87623e-08
  Excitation energy:                                              12.052640 eV
  Excited state 9 (singlet, A)                                     [converged]
  Term symbol:  10 (1) A                                    R^2 =  3.20673e-07
  Excitation energy:                                              12.336661 eV
  Excited state 10 (singlet, A)                                     [converged]
  Term symbol:  11 (1) A                                    R^2 =  8.31198e-07
  Excitation energy:                                              12.470328 eV
  Excitation energy:                                               0.216240 eV
  Excitation energy:                                               0.420648 eV
  Excitation energy:                                               0.204408 eV
  Excitation energy:                                               1.020714 eV
  Excitation energy:                                               0.804474 eV
  Excitation energy:                                               0.600066 eV
  Excitation energy:                                               1.434645 eV
  Excitation energy:                                               1.218406 eV
  Excitation energy:                                               1.013997 eV
  Excitation energy:                                               0.413932 eV
  Excitation energy:                                               1.791834 eV
  Excitation energy:                                               1.575595 eV
  Excitation energy:                                               1.371186 eV
  Excitation energy:                                               0.771121 eV
  Excitation energy:                                               0.357189 eV
  Excitation energy:                                               2.707755 eV
  Excitation energy:                                               2.491515 eV
  Excitation energy:                                               2.287107 eV
  Excitation energy:                                               1.687041 eV
  Excitation energy:                                               1.273110 eV
  Excitation energy:                                               0.915921 eV
  Excitation energy:                                               3.336557 eV
  Excitation energy:                                               3.120318 eV
  Excitation energy:                                               2.915909 eV
  Excitation energy:                                               2.315844 eV
  Excitation energy:                                               1.901912 eV
  Excitation energy:                                               1.544723 eV
  Excitation energy:                                               0.628802 eV
  Excitation energy:                                               3.620578 eV
  Excitation energy:                                               3.404338 eV
  Excitation energy:                                               3.199930 eV
  Excitation energy:                                               2.599864 eV
  Excitation energy:                                               2.185933 eV
  Excitation energy:                                               1.828744 eV
  Excitation energy:                                               0.912823 eV
  Excitation energy:                                               0.284021 eV
  Excitation energy:                                               3.754245 eV
  Excitation energy:                                               3.538005 eV
  Excitation energy:                                               3.333597 eV
  Excitation energy:                                               2.733531 eV
  Excitation energy:                                               2.319599 eV
  Excitation energy:                                               1.962410 eV
  Excitation energy:                                               1.046490 eV
  Excitation energy:                                               0.417687 eV
  Excitation energy:                                               0.133667 eV

                    Orbital Energies (a.u.)
 --------------------------------------------------------------

 Alpha MOs
 -- Occupied --
-11.2391 -11.2374  -1.0297  -0.7858  -0.6348  -0.5821  -0.4993  -0.3743

          Ground-State Mulliken Net Atomic Charges

     Atom                 Charge (a.u.)
  ----------------------------------------
      1 H                     0.051321
      2 C                    -0.101983
      3 H                     0.053442
      4 C                    -0.108421
      5 H                     0.051361
      6 H                     0.054280
  ----------------------------------------
  Sum of atomic charges =     0.000000

                    Cartesian Multipole Moments
 -----------------------------------------------------------------
    Charge (ESU x 10^10)
                 0.0000
    Dipole Moment (Debye)
         X       0.0149      Y       0.0084      Z      -0.0627
       Tot       0.0650
    Quadrupole Moments (Debye-Ang)
        XX     -12.3484     XY      -0.1259     YY     -12.2276
        XZ       0.2966     YZ       0.2632     ZZ     -15.6034

 Total job time:  148.25s(wall), 437.28s(cpu)
        *  Thank you very much for using Q-Chem.  Have a nice day.  *
