 Q-Chem 5.4 (devel), Q-Chem, Inc., Pleasanton, CA (2021)
 Q-Chem 5.4.1 for Intel X86 EM64T Linux

User input:
--------------------------------------------------------------
$comment
generated from CCJob.Templates
$end

$rem
sym_ignore = true
method = adc(2)
ee_states = 10
basis = cc-pVDZ
mem_static = 1024
mem_total = 40000
adc_davidson_maxiter = 900
adc_davidson_conv = 6
adc_print = 3
adc_prop_es = true
adc_prop_es2es = true
adc_prop_tpa = true
molden_format = True
state_analysis = true
print_orbitals = 15
gen_scfman = false
fde_export_density = true
fde_details = 3
$end

$molecule
0 1
H -0.0348278765 -0.2442097827 0.0636489606
C -1.0765972949 -0.5142748755 -0.0023551776
H -1.313264467 -1.5767591607 -0.0757276926
C -2.043634118 0.3926884087 0.0061254933
H -1.8137616575 1.4459188338 0.0804456828
H -3.085977293 0.114931858 -0.0593381042
$end
--------------------------------------------------------------

             Standard Nuclear Orientation (Angstroms)
    I     Atom           X                Y                Z
 ----------------------------------------------------------------
    1      H      -0.0348278765    -0.2442097827     0.0636489606
    2      C      -1.0765972949    -0.5142748755    -0.0023551776
    3      H      -1.3132644670    -1.5767591607    -0.0757276926
    4      C      -2.0436341180     0.3926884087     0.0061254933
    5      H      -1.8137616575     1.4459188338     0.0804456828
    6      H      -3.0859772930     0.1149318580    -0.0593381042
 ----------------------------------------------------------------

   11     -78.0400070535      7.97E-09 Convergence criterion met
 Total energy in the final basis set = -78.04000705
  Excited state 1 (singlet, A)                                     [converged]
  Term symbol:  2 (1) A                                     R^2 =  1.19578e-14
  Excitation energy:                                               8.797103 eV
  Excited state 2 (singlet, A)                                     [converged]
  Term symbol:  3 (1) A                                     R^2 =  3.96531e-14
  Excitation energy:                                               9.047354 eV
  Excited state 3 (singlet, A)                                     [converged]
  Term symbol:  4 (1) A                                     R^2 =  2.88891e-14
  Excitation energy:                                               9.199433 eV
  Excited state 4 (singlet, A)                                     [converged]
  Term symbol:  5 (1) A                                     R^2 =  1.23249e-13
  Excitation energy:                                               9.836253 eV
  Excited state 5 (singlet, A)                                     [converged]
  Term symbol:  6 (1) A                                     R^2 =  2.73245e-13
  Excitation energy:                                              10.257744 eV
  Excited state 6 (singlet, A)                                     [converged]
  Term symbol:  7 (1) A                                     R^2 =  5.61061e-13
  Excitation energy:                                              10.593341 eV
  Excited state 7 (singlet, A)                                     [converged]
  Term symbol:  8 (1) A                                     R^2 =  1.68787e-12
  Excitation energy:                                              11.513194 eV
  Excited state 8 (singlet, A)                                     [converged]
  Term symbol:  9 (1) A                                     R^2 =  4.19826e-11
  Excitation energy:                                              12.200988 eV
  Excited state 9 (singlet, A)                                     [converged]
  Term symbol:  10 (1) A                                    R^2 =  1.79760e-09
  Excitation energy:                                              12.453019 eV
  Excited state 10 (singlet, A)                                     [converged]
  Term symbol:  11 (1) A                                    R^2 =  8.19856e-07
  Excitation energy:                                              12.582771 eV
  Excitation energy:                                               0.250251 eV
  Excitation energy:                                               0.402330 eV
  Excitation energy:                                               0.152079 eV
  Excitation energy:                                               1.039151 eV
  Excitation energy:                                               0.788900 eV
  Excitation energy:                                               0.636820 eV
  Excitation energy:                                               1.460641 eV
  Excitation energy:                                               1.210390 eV
  Excitation energy:                                               1.058310 eV
  Excitation energy:                                               0.421490 eV
  Excitation energy:                                               1.796238 eV
  Excitation energy:                                               1.545987 eV
  Excitation energy:                                               1.393908 eV
  Excitation energy:                                               0.757088 eV
  Excitation energy:                                               0.335597 eV
  Excitation energy:                                               2.716091 eV
  Excitation energy:                                               2.465840 eV
  Excitation energy:                                               2.313761 eV
  Excitation energy:                                               1.676941 eV
  Excitation energy:                                               1.255451 eV
  Excitation energy:                                               0.919853 eV
  Excitation energy:                                               3.403885 eV
  Excitation energy:                                               3.153634 eV
  Excitation energy:                                               3.001555 eV
  Excitation energy:                                               2.364735 eV
  Excitation energy:                                               1.943245 eV
  Excitation energy:                                               1.607647 eV
  Excitation energy:                                               0.687794 eV
  Excitation energy:                                               3.655917 eV
  Excitation energy:                                               3.405666 eV
  Excitation energy:                                               3.253586 eV
  Excitation energy:                                               2.616766 eV
  Excitation energy:                                               2.195276 eV
  Excitation energy:                                               1.859678 eV
  Excitation energy:                                               0.939825 eV
  Excitation energy:                                               0.252031 eV
  Excitation energy:                                               3.785668 eV
  Excitation energy:                                               3.535417 eV
  Excitation energy:                                               3.383338 eV
  Excitation energy:                                               2.746518 eV
  Excitation energy:                                               2.325028 eV
  Excitation energy:                                               1.989430 eV
  Excitation energy:                                               1.069577 eV
  Excitation energy:                                               0.381783 eV
  Excitation energy:                                               0.129752 eV

                    Orbital Energies (a.u.)
 --------------------------------------------------------------

 Alpha MOs
 -- Occupied --
-11.2346 -11.2327  -1.0341  -0.7887  -0.6408  -0.5836  -0.5024  -0.3757

          Ground-State Mulliken Net Atomic Charges

     Atom                 Charge (a.u.)
  ----------------------------------------
      1 H                     0.047318
      2 C                    -0.097771
      3 H                     0.048731
      4 C                    -0.092306
      5 H                     0.046428
      6 H                     0.047600
  ----------------------------------------
  Sum of atomic charges =     0.000000

                    Cartesian Multipole Moments
 -----------------------------------------------------------------
    Charge (ESU x 10^10)
                -0.0000
    Dipole Moment (Debye)
         X       0.0014      Y       0.0048      Z       0.0023
       Tot       0.0055
    Quadrupole Moments (Debye-Ang)
        XX     -12.1969     XY      -0.0683     YY     -12.3073
        XZ       0.1513     YZ       0.1893     ZZ     -15.5226

 Total job time:  72.89s(wall), 187.28s(cpu)
        *  Thank you very much for using Q-Chem.  Have a nice day.  *
