 Q-Chem 5.4 (devel), Q-Chem, Inc., Pleasanton, CA (2021)
 Q-Chem 5.4.1 for Intel X86 EM64T Linux

User input:
--------------------------------------------------------------
$comment
generated from CCJob.Templates
$end

$rem
sym_ignore = true
method = adc(2)
ee_states = 10
basis = cc-pVDZ
mem_static = 1024
mem_total = 40000
adc_davidson_maxiter = 900
adc_davidson_conv = 6
adc_print = 3
adc_prop_es = true
adc_prop_es2es = true
adc_prop_tpa = true
molden_format = True
state_analysis = true
print_orbitals = 15
gen_scfman = false
fde_export_density = true
fde_details = 3
$end

$molecule
0 1
H -0.0348278765 -0.2442097827 0.0636489606
C -1.0765972949 -0.5242748755 -0.0023551776
H -1.313264467 -1.5767591607 -0.0757276926
C -2.043634118 0.3926884087 0.0061254933
H -1.7737616575 1.4459188338 0.0804456828
H -3.085977293 0.114931858 -0.0593381042
$end
--------------------------------------------------------------

             Standard Nuclear Orientation (Angstroms)
    I     Atom           X                Y                Z
 ----------------------------------------------------------------
    1      H      -0.0348278765    -0.2442097827     0.0636489606
    2      C      -1.0765972949    -0.5242748755    -0.0023551776
    3      H      -1.3132644670    -1.5767591607    -0.0757276926
    4      C      -2.0436341180     0.3926884087     0.0061254933
    5      H      -1.7737616575     1.4459188338     0.0804456828
    6      H      -3.0859772930     0.1149318580    -0.0593381042
 ----------------------------------------------------------------

   11     -78.0396689587      8.01E-09 Convergence criterion met
 Total energy in the final basis set = -78.03966896
  Excited state 1 (singlet, A)                                     [converged]
  Term symbol:  2 (1) A                                     R^2 =  5.08287e-13
  Excitation energy:                                               8.740121 eV
  Excited state 2 (singlet, A)                                     [converged]
  Term symbol:  3 (1) A                                     R^2 =  6.26011e-13
  Excitation energy:                                               9.068379 eV
  Excited state 3 (singlet, A)                                     [converged]
  Term symbol:  4 (1) A                                     R^2 =  5.65189e-13
  Excitation energy:                                               9.134616 eV
  Excited state 4 (singlet, A)                                     [converged]
  Term symbol:  5 (1) A                                     R^2 =  2.67826e-13
  Excitation energy:                                               9.820905 eV
  Excited state 5 (singlet, A)                                     [converged]
  Term symbol:  6 (1) A                                     R^2 =  3.85637e-13
  Excitation energy:                                              10.185635 eV
  Excited state 6 (singlet, A)                                     [converged]
  Term symbol:  7 (1) A                                     R^2 =  5.96193e-13
  Excitation energy:                                              10.515647 eV
  Excited state 7 (singlet, A)                                     [converged]
  Term symbol:  8 (1) A                                     R^2 =  8.28288e-11
  Excitation energy:                                              11.534359 eV
  Excited state 8 (singlet, A)                                     [converged]
  Term symbol:  9 (1) A                                     R^2 =  1.14116e-11
  Excitation energy:                                              12.181402 eV
  Excited state 9 (singlet, A)                                     [converged]
  Term symbol:  10 (1) A                                    R^2 =  2.06498e-10
  Excitation energy:                                              12.434681 eV
  Excited state 10 (singlet, A)                                     [converged]
  Term symbol:  11 (1) A                                    R^2 =  8.04633e-07
  Excitation energy:                                              12.637684 eV
  Excitation energy:                                               0.328258 eV
  Excitation energy:                                               0.394495 eV
  Excitation energy:                                               0.066237 eV
  Excitation energy:                                               1.080784 eV
  Excitation energy:                                               0.752526 eV
  Excitation energy:                                               0.686289 eV
  Excitation energy:                                               1.445514 eV
  Excitation energy:                                               1.117256 eV
  Excitation energy:                                               1.051018 eV
  Excitation energy:                                               0.364730 eV
  Excitation energy:                                               1.775526 eV
  Excitation energy:                                               1.447268 eV
  Excitation energy:                                               1.381030 eV
  Excitation energy:                                               0.694742 eV
  Excitation energy:                                               0.330012 eV
  Excitation energy:                                               2.794238 eV
  Excitation energy:                                               2.465980 eV
  Excitation energy:                                               2.399742 eV
  Excitation energy:                                               1.713454 eV
  Excitation energy:                                               1.348724 eV
  Excitation energy:                                               1.018712 eV
  Excitation energy:                                               3.441281 eV
  Excitation energy:                                               3.113023 eV
  Excitation energy:                                               3.046786 eV
  Excitation energy:                                               2.360497 eV
  Excitation energy:                                               1.995767 eV
  Excitation energy:                                               1.665755 eV
  Excitation energy:                                               0.647043 eV
  Excitation energy:                                               3.694560 eV
  Excitation energy:                                               3.366302 eV
  Excitation energy:                                               3.300064 eV
  Excitation energy:                                               2.613776 eV
  Excitation energy:                                               2.249046 eV
  Excitation energy:                                               1.919034 eV
  Excitation energy:                                               0.900322 eV
  Excitation energy:                                               0.253278 eV
  Excitation energy:                                               3.897563 eV
  Excitation energy:                                               3.569305 eV
  Excitation energy:                                               3.503067 eV
  Excitation energy:                                               2.816779 eV
  Excitation energy:                                               2.452049 eV
  Excitation energy:                                               2.122037 eV
  Excitation energy:                                               1.103325 eV
  Excitation energy:                                               0.456282 eV
  Excitation energy:                                               0.203003 eV

                    Orbital Energies (a.u.)
 --------------------------------------------------------------

 Alpha MOs
 -- Occupied --
-11.2354 -11.2335  -1.0324  -0.7875  -0.6424  -0.5792  -0.5049  -0.3740

          Ground-State Mulliken Net Atomic Charges

     Atom                 Charge (a.u.)
  ----------------------------------------
      1 H                     0.047691
      2 C                    -0.095367
      3 H                     0.046806
      4 C                    -0.098307
      5 H                     0.049642
      6 H                     0.049535
  ----------------------------------------
  Sum of atomic charges =     0.000000

                    Cartesian Multipole Moments
 -----------------------------------------------------------------
    Charge (ESU x 10^10)
                -0.0000
    Dipole Moment (Debye)
         X       0.0057      Y      -0.0087      Z      -0.0004
       Tot       0.0104
    Quadrupole Moments (Debye-Ang)
        XX     -12.2144     XY       0.0315     YY     -12.3212
        XZ       0.1613     YZ       0.1921     ZZ     -15.5547

 Total job time:  72.72s(wall), 247.43s(cpu)
        *  Thank you very much for using Q-Chem.  Have a nice day.  *
