 Q-Chem 5.4 (devel), Q-Chem, Inc., Pleasanton, CA (2021)
 Q-Chem 5.4.1 for Intel X86 EM64T Linux

User input:
--------------------------------------------------------------
$comment
generated from CCJob.Templates
$end

$rem
sym_ignore = true
method = adc(2)
ee_states = 10
basis = cc-pVDZ
mem_static = 1024
mem_total = 30000
adc_davidson_maxiter = 900
adc_davidson_conv = 6
adc_print = 3
adc_prop_es = true
adc_prop_es2es = true
adc_prop_tpa = true
molden_format = True
state_analysis = true
print_orbitals = 15
gen_scfman = false
fde_export_density = true
fde_details = 3
$end

$molecule
0 1
H -0.0348278765 -0.2442097827 0.0636489606
C -1.0765972949 -0.5242748755 -0.0023551776
H -1.313264467 -1.5767591607 -0.0757276926
C -2.043634118 0.3976884087 0.0061254933
H -1.8137616575 1.4459188338 0.0804456828
H -3.085977293 0.114931858 -0.0593381042
$end
--------------------------------------------------------------

             Standard Nuclear Orientation (Angstroms)
    I     Atom           X                Y                Z
 ----------------------------------------------------------------
    1      H      -0.0348278765    -0.2442097827     0.0636489606
    2      C      -1.0765972949    -0.5242748755    -0.0023551776
    3      H      -1.3132644670    -1.5767591607    -0.0757276926
    4      C      -2.0436341180     0.3976884087     0.0061254933
    5      H      -1.8137616575     1.4459188338     0.0804456828
    6      H      -3.0859772930     0.1149318580    -0.0593381042
 ----------------------------------------------------------------

   11     -78.0397786966      7.29E-09 Convergence criterion met
 Total energy in the final basis set = -78.03977870
  Excited state 1 (singlet, A)                                     [converged]
  Term symbol:  2 (1) A                                     R^2 =  3.49355e-10
  Excitation energy:                                               8.707205 eV
  Excited state 2 (singlet, A)                                     [converged]
  Term symbol:  3 (1) A                                     R^2 =  1.67763e-11
  Excitation energy:                                               9.056410 eV
  Excited state 3 (singlet, A)                                     [converged]
  Term symbol:  4 (1) A                                     R^2 =  7.48983e-12
  Excitation energy:                                               9.156110 eV
  Excited state 4 (singlet, A)                                     [converged]
  Term symbol:  5 (1) A                                     R^2 =  2.96369e-11
  Excitation energy:                                               9.832170 eV
  Excited state 5 (singlet, A)                                     [converged]
  Term symbol:  6 (1) A                                     R^2 =  1.29633e-10
  Excitation energy:                                              10.188174 eV
  Excited state 6 (singlet, A)                                     [converged]
  Term symbol:  7 (1) A                                     R^2 =  3.24133e-10
  Excitation energy:                                              10.509521 eV
  Excited state 7 (singlet, A)                                     [converged]
  Term symbol:  8 (1) A                                     R^2 =  6.91651e-07
  Excitation energy:                                              11.577327 eV
  Excited state 8 (singlet, A)                                     [converged]
  Term symbol:  9 (1) A                                     R^2 =  1.26844e-07
  Excitation energy:                                              12.147547 eV
  Excited state 9 (singlet, A)                                     [converged]
  Term symbol:  10 (1) A                                    R^2 =  4.35297e-07
  Excitation energy:                                              12.399117 eV
  Excited state 10 (singlet, A)                                     [converged]
  Term symbol:  11 (1) A                                    R^2 =  9.81721e-07
  Excitation energy:                                              12.675977 eV
  Excitation energy:                                               0.349205 eV
  Excitation energy:                                               0.448905 eV
  Excitation energy:                                               0.099700 eV
  Excitation energy:                                               1.124965 eV
  Excitation energy:                                               0.775759 eV
  Excitation energy:                                               0.676060 eV
  Excitation energy:                                               1.480969 eV
  Excitation energy:                                               1.131764 eV
  Excitation energy:                                               1.032064 eV
  Excitation energy:                                               0.356004 eV
  Excitation energy:                                               1.802316 eV
  Excitation energy:                                               1.453111 eV
  Excitation energy:                                               1.353411 eV
  Excitation energy:                                               0.677351 eV
  Excitation energy:                                               0.321347 eV
  Excitation energy:                                               2.870122 eV
  Excitation energy:                                               2.520917 eV
  Excitation energy:                                               2.421217 eV
  Excitation energy:                                               1.745157 eV
  Excitation energy:                                               1.389153 eV
  Excitation energy:                                               1.067806 eV
  Excitation energy:                                               3.440342 eV
  Excitation energy:                                               3.091137 eV
  Excitation energy:                                               2.991437 eV
  Excitation energy:                                               2.315378 eV
  Excitation energy:                                               1.959374 eV
  Excitation energy:                                               1.638026 eV
  Excitation energy:                                               0.570220 eV
  Excitation energy:                                               3.691912 eV
  Excitation energy:                                               3.342707 eV
  Excitation energy:                                               3.243007 eV
  Excitation energy:                                               2.566947 eV
  Excitation energy:                                               2.210943 eV
  Excitation energy:                                               1.889596 eV
  Excitation energy:                                               0.821790 eV
  Excitation energy:                                               0.251569 eV
  Excitation energy:                                               3.968772 eV
  Excitation energy:                                               3.619566 eV
  Excitation energy:                                               3.519867 eV
  Excitation energy:                                               2.843807 eV
  Excitation energy:                                               2.487803 eV
  Excitation energy:                                               2.166456 eV
  Excitation energy:                                               1.098650 eV
  Excitation energy:                                               0.528429 eV
  Excitation energy:                                               0.276860 eV

                    Orbital Energies (a.u.)
 --------------------------------------------------------------

 Alpha MOs
 -- Occupied --
-11.2354 -11.2338  -1.0314  -0.7904  -0.6413  -0.5811  -0.5056  -0.3731

          Ground-State Mulliken Net Atomic Charges

     Atom                 Charge (a.u.)
  ----------------------------------------
      1 H                     0.048167
      2 C                    -0.096700
      3 H                     0.048044
      4 C                    -0.094130
      5 H                     0.046548
      6 H                     0.048071
  ----------------------------------------
  Sum of atomic charges =     0.000000

                    Cartesian Multipole Moments
 -----------------------------------------------------------------
    Charge (ESU x 10^10)
                 0.0000
    Dipole Moment (Debye)
         X      -0.0002      Y       0.0030      Z       0.0017
       Tot       0.0035
    Quadrupole Moments (Debye-Ang)
        XX     -12.2316     XY      -0.0582     YY     -12.2492
        XZ       0.1516     YZ       0.1953     ZZ     -15.5503

 Total job time:  51.77s(wall), 163.94s(cpu)
        *  Thank you very much for using Q-Chem.  Have a nice day.  *
