 Q-Chem 5.4 (devel), Q-Chem, Inc., Pleasanton, CA (2021)
 Q-Chem 5.4.1 for Intel X86 EM64T Linux

User input:
--------------------------------------------------------------
$comment
generated from CCJob.Templates
$end

$rem
sym_ignore = true
method = adc(2)
ee_states = 10
basis = cc-pVDZ
mem_static = 1024
mem_total = 40000
adc_davidson_maxiter = 900
adc_davidson_conv = 6
adc_print = 3
adc_prop_es = true
adc_prop_es2es = true
adc_prop_tpa = true
molden_format = True
state_analysis = true
print_orbitals = 15
gen_scfman = false
fde_export_density = true
fde_details = 3
$end

$molecule
0 1
H -0.0348278765 -0.2442097827 0.0636489606
C -1.0765972949 -0.5242748755 -0.0423551776
H -1.313264467 -1.5767591607 -0.0757276926
C -2.043634118 0.3926884087 0.0061254933
H -1.8137616575 1.4459188338 0.0804456828
H -3.085977293 0.114931858 -0.0593381042
$end
--------------------------------------------------------------

             Standard Nuclear Orientation (Angstroms)
    I     Atom           X                Y                Z
 ----------------------------------------------------------------
    1      H      -0.0348278765    -0.2442097827     0.0636489606
    2      C      -1.0765972949    -0.5242748755    -0.0423551776
    3      H      -1.3132644670    -1.5767591607    -0.0757276926
    4      C      -2.0436341180     0.3926884087     0.0061254933
    5      H      -1.8137616575     1.4459188338     0.0804456828
    6      H      -3.0859772930     0.1149318580    -0.0593381042
 ----------------------------------------------------------------

   11     -78.0395266772      7.00E-09 Convergence criterion met
 Total energy in the final basis set = -78.03952668
  Excited state 1 (singlet, A)                                     [converged]
  Term symbol:  2 (1) A                                     R^2 =  5.58646e-13
  Excitation energy:                                               8.722082 eV
  Excited state 2 (singlet, A)                                     [converged]
  Term symbol:  3 (1) A                                     R^2 =  5.51850e-13
  Excitation energy:                                               9.038419 eV
  Excited state 3 (singlet, A)                                     [converged]
  Term symbol:  4 (1) A                                     R^2 =  3.56368e-13
  Excitation energy:                                               9.170304 eV
  Excited state 4 (singlet, A)                                     [converged]
  Term symbol:  5 (1) A                                     R^2 =  7.67417e-13
  Excitation energy:                                               9.832370 eV
  Excited state 5 (singlet, A)                                     [converged]
  Term symbol:  6 (1) A                                     R^2 =  5.13883e-12
  Excitation energy:                                              10.200754 eV
  Excited state 6 (singlet, A)                                     [converged]
  Term symbol:  7 (1) A                                     R^2 =  2.47929e-11
  Excitation energy:                                              10.523937 eV
  Excited state 7 (singlet, A)                                     [converged]
  Term symbol:  8 (1) A                                     R^2 =  2.76330e-09
  Excitation energy:                                              11.552833 eV
  Excited state 8 (singlet, A)                                     [converged]
  Term symbol:  9 (1) A                                     R^2 =  2.39297e-07
  Excitation energy:                                              12.152760 eV
  Excited state 9 (singlet, A)                                     [converged]
  Term symbol:  10 (1) A                                    R^2 =  7.13865e-07
  Excitation energy:                                              12.405694 eV
  Excited state 10 (singlet, A)                                     [converged]
  Term symbol:  11 (1) A                                    R^2 =  3.07331e-07
  Excitation energy:                                              12.643247 eV
  Excitation energy:                                               0.316337 eV
  Excitation energy:                                               0.448222 eV
  Excitation energy:                                               0.131885 eV
  Excitation energy:                                               1.110288 eV
  Excitation energy:                                               0.793951 eV
  Excitation energy:                                               0.662066 eV
  Excitation energy:                                               1.478672 eV
  Excitation energy:                                               1.162336 eV
  Excitation energy:                                               1.030450 eV
  Excitation energy:                                               0.368385 eV
  Excitation energy:                                               1.801855 eV
  Excitation energy:                                               1.485518 eV
  Excitation energy:                                               1.353633 eV
  Excitation energy:                                               0.691567 eV
  Excitation energy:                                               0.323183 eV
  Excitation energy:                                               2.830750 eV
  Excitation energy:                                               2.514414 eV
  Excitation energy:                                               2.382528 eV
  Excitation energy:                                               1.720463 eV
  Excitation energy:                                               1.352078 eV
  Excitation energy:                                               1.028896 eV
  Excitation energy:                                               3.430678 eV
  Excitation energy:                                               3.114341 eV
  Excitation energy:                                               2.982456 eV
  Excitation energy:                                               2.320390 eV
  Excitation energy:                                               1.952005 eV
  Excitation energy:                                               1.628823 eV
  Excitation energy:                                               0.599927 eV
  Excitation energy:                                               3.683612 eV
  Excitation energy:                                               3.367276 eV
  Excitation energy:                                               3.235390 eV
  Excitation energy:                                               2.573325 eV
  Excitation energy:                                               2.204940 eV
  Excitation energy:                                               1.881757 eV
  Excitation energy:                                               0.852862 eV
  Excitation energy:                                               0.252934 eV
  Excitation energy:                                               3.921165 eV
  Excitation energy:                                               3.604829 eV
  Excitation energy:                                               3.472943 eV
  Excitation energy:                                               2.810877 eV
  Excitation energy:                                               2.442493 eV
  Excitation energy:                                               2.119310 eV
  Excitation energy:                                               1.090415 eV
  Excitation energy:                                               0.490487 eV
  Excitation energy:                                               0.237553 eV

                    Orbital Energies (a.u.)
 --------------------------------------------------------------

 Alpha MOs
 -- Occupied --
-11.2353 -11.2337  -1.0321  -0.7898  -0.6409  -0.5816  -0.5045  -0.3739

          Ground-State Mulliken Net Atomic Charges

     Atom                 Charge (a.u.)
  ----------------------------------------
      1 H                     0.048882
      2 C                    -0.096590
      3 H                     0.047572
      4 C                    -0.095068
      5 H                     0.047509
      6 H                     0.047695
  ----------------------------------------
  Sum of atomic charges =     0.000000

                    Cartesian Multipole Moments
 -----------------------------------------------------------------
    Charge (ESU x 10^10)
                 0.0000
    Dipole Moment (Debye)
         X      -0.0101      Y       0.0014      Z       0.0570
       Tot       0.0579
    Quadrupole Moments (Debye-Ang)
        XX     -12.2081     XY      -0.0577     YY     -12.2568
        XZ       0.0896     YZ       0.1669     ZZ     -15.5447

 Total job time:  82.45s(wall), 273.03s(cpu)
        *  Thank you very much for using Q-Chem.  Have a nice day.  *
