 Q-Chem 5.4 (devel), Q-Chem, Inc., Pleasanton, CA (2021)
 Q-Chem 5.4.1 for Intel X86 EM64T Linux

User input:
--------------------------------------------------------------
$comment
generated from CCJob.Templates
$end

$rem
sym_ignore = true
method = adc(2)
ee_states = 10
basis = cc-pVDZ
mem_static = 1024
mem_total = 30000
adc_davidson_maxiter = 900
adc_davidson_conv = 6
adc_print = 3
adc_prop_es = true
adc_prop_es2es = true
adc_prop_tpa = true
molden_format = True
state_analysis = true
print_orbitals = 15
gen_scfman = false
fde_export_density = true
fde_details = 3
$end

$molecule
0 1
H -0.0348278765 -0.2442097827 0.0636489606
C -1.0815972949 -0.5242748755 -0.0023551776
H -1.313264467 -1.5767591607 -0.0757276926
C -2.043634118 0.3926884087 0.0061254933
H -1.8137616575 1.4459188338 0.0804456828
H -3.085977293 0.114931858 -0.0593381042
$end
--------------------------------------------------------------

             Standard Nuclear Orientation (Angstroms)
    I     Atom           X                Y                Z
 ----------------------------------------------------------------
    1      H      -0.0348278765    -0.2442097827     0.0636489606
    2      C      -1.0815972949    -0.5242748755    -0.0023551776
    3      H      -1.3132644670    -1.5767591607    -0.0757276926
    4      C      -2.0436341180     0.3926884087     0.0061254933
    5      H      -1.8137616575     1.4459188338     0.0804456828
    6      H      -3.0859772930     0.1149318580    -0.0593381042
 ----------------------------------------------------------------

   11     -78.0400324374      7.12E-09 Convergence criterion met
 Total energy in the final basis set = -78.04003244
  Excited state 1 (singlet, A)                                     [converged]
  Term symbol:  2 (1) A                                     R^2 =  6.31916e-13
  Excitation energy:                                               8.768740 eV
  Excited state 2 (singlet, A)                                     [converged]
  Term symbol:  3 (1) A                                     R^2 =  5.33883e-13
  Excitation energy:                                               9.053192 eV
  Excited state 3 (singlet, A)                                     [converged]
  Term symbol:  4 (1) A                                     R^2 =  6.30004e-13
  Excitation energy:                                               9.186136 eV
  Excited state 4 (singlet, A)                                     [converged]
  Term symbol:  5 (1) A                                     R^2 =  3.67871e-13
  Excitation energy:                                               9.834721 eV
  Excited state 5 (singlet, A)                                     [converged]
  Term symbol:  6 (1) A                                     R^2 =  2.35972e-13
  Excitation energy:                                              10.235885 eV
  Excited state 6 (singlet, A)                                     [converged]
  Term symbol:  7 (1) A                                     R^2 =  5.03473e-13
  Excitation energy:                                              10.564523 eV
  Excited state 7 (singlet, A)                                     [converged]
  Term symbol:  8 (1) A                                     R^2 =  3.02515e-10
  Excitation energy:                                              11.535851 eV
  Excited state 8 (singlet, A)                                     [converged]
  Term symbol:  9 (1) A                                     R^2 =  3.05351e-09
  Excitation energy:                                              12.184480 eV
  Excited state 9 (singlet, A)                                     [converged]
  Term symbol:  10 (1) A                                    R^2 =  4.12628e-08
  Excitation energy:                                              12.436424 eV
  Excited state 10 (singlet, A)                                     [converged]
  Term symbol:  11 (1) A                                    R^2 =  6.83008e-07
  Excitation energy:                                              12.614136 eV
  Excitation energy:                                               0.284452 eV
  Excitation energy:                                               0.417397 eV
  Excitation energy:                                               0.132945 eV
  Excitation energy:                                               1.065981 eV
  Excitation energy:                                               0.781529 eV
  Excitation energy:                                               0.648584 eV
  Excitation energy:                                               1.467146 eV
  Excitation energy:                                               1.182694 eV
  Excitation energy:                                               1.049749 eV
  Excitation energy:                                               0.401165 eV
  Excitation energy:                                               1.795783 eV
  Excitation energy:                                               1.511332 eV
  Excitation energy:                                               1.378387 eV
  Excitation energy:                                               0.729802 eV
  Excitation energy:                                               0.328638 eV
  Excitation energy:                                               2.767111 eV
  Excitation energy:                                               2.482659 eV
  Excitation energy:                                               2.349715 eV
  Excitation energy:                                               1.701130 eV
  Excitation energy:                                               1.299965 eV
  Excitation energy:                                               0.971328 eV
  Excitation energy:                                               3.415740 eV
  Excitation energy:                                               3.131288 eV
  Excitation energy:                                               2.998344 eV
  Excitation energy:                                               2.349759 eV
  Excitation energy:                                               1.948595 eV
  Excitation energy:                                               1.619957 eV
  Excitation energy:                                               0.648629 eV
  Excitation energy:                                               3.667684 eV
  Excitation energy:                                               3.383233 eV
  Excitation energy:                                               3.250288 eV
  Excitation energy:                                               2.601703 eV
  Excitation energy:                                               2.200539 eV
  Excitation energy:                                               1.871901 eV
  Excitation energy:                                               0.900573 eV
  Excitation energy:                                               0.251944 eV
  Excitation energy:                                               3.845396 eV
  Excitation energy:                                               3.560944 eV
  Excitation energy:                                               3.428000 eV
  Excitation energy:                                               2.779415 eV
  Excitation energy:                                               2.378251 eV
  Excitation energy:                                               2.049613 eV
  Excitation energy:                                               1.078285 eV
  Excitation energy:                                               0.429656 eV
  Excitation energy:                                               0.177712 eV

                    Orbital Energies (a.u.)
 --------------------------------------------------------------

 Alpha MOs
 -- Occupied --
-11.2348 -11.2330  -1.0332  -0.7892  -0.6410  -0.5827  -0.5035  -0.3749

          Ground-State Mulliken Net Atomic Charges

     Atom                 Charge (a.u.)
  ----------------------------------------
      1 H                     0.048705
      2 C                    -0.096532
      3 H                     0.047272
      4 C                    -0.093851
      5 H                     0.047131
      6 H                     0.047275
  ----------------------------------------
  Sum of atomic charges =     0.000000

                    Cartesian Multipole Moments
 -----------------------------------------------------------------
    Charge (ESU x 10^10)
                 0.0000
    Dipole Moment (Debye)
         X      -0.0030      Y       0.0001      Z       0.0007
       Tot       0.0031
    Quadrupole Moments (Debye-Ang)
        XX     -12.2277     XY      -0.0600     YY     -12.2557
        XZ       0.1517     YZ       0.1935     ZZ     -15.5313

 Total job time:  60.09s(wall), 195.08s(cpu)
        *  Thank you very much for using Q-Chem.  Have a nice day.  *
