 Q-Chem 5.4 (devel), Q-Chem, Inc., Pleasanton, CA (2021)
 Q-Chem 5.4.1 for Intel X86 EM64T Linux

User input:
--------------------------------------------------------------
$comment
generated from CCJob.Templates
$end

$rem
sym_ignore = true
method = adc(2)
ee_states = 10
basis = cc-pVDZ
mem_static = 1024
mem_total = 40000
adc_davidson_maxiter = 900
adc_davidson_conv = 6
adc_print = 3
adc_prop_es = true
adc_prop_es2es = true
adc_prop_tpa = true
molden_format = True
state_analysis = true
print_orbitals = 15
gen_scfman = false
fde_export_density = true
fde_details = 3
$end

$molecule
0 1
H      -0.0215469356    -0.2469766659     0.0651269053
C      -1.0779113068    -0.5244188153    -0.0023630204
H      -1.3012023007    -1.5930418722    -0.0776959385
C      -2.0447597208     0.3938428784     0.0066099599
H      -1.8215079279     1.4624778413     0.0819226840
H      -3.1011345151     0.1164119154    -0.0608014280
$end
--------------------------------------------------------------

             Standard Nuclear Orientation (Angstroms)
    I     Atom           X                Y                Z
 ----------------------------------------------------------------
    1      H      -0.0215469356    -0.2469766659     0.0651269053
    2      C      -1.0779113068    -0.5244188153    -0.0023630204
    3      H      -1.3012023007    -1.5930418722    -0.0776959385
    4      C      -2.0447597208     0.3938428784     0.0066099599
    5      H      -1.8215079279     1.4624778413     0.0819226840
    6      H      -3.1011345151     0.1164119154    -0.0608014280
 ----------------------------------------------------------------

   10     -78.0396520611      3.80E-09 Convergence criterion met
 Total energy in the final basis set = -78.03965206
  Excited state 1 (singlet, A)                                     [converged]
  Term symbol:  2 (1) A                                     R^2 =  3.73293e-10
  Excitation energy:                                               8.731815 eV
  Excited state 2 (singlet, A)                                     [converged]
  Term symbol:  3 (1) A                                     R^2 =  1.07397e-11
  Excitation energy:                                               8.952471 eV
  Excited state 3 (singlet, A)                                     [converged]
  Term symbol:  4 (1) A                                     R^2 =  2.95154e-11
  Excitation energy:                                               9.141665 eV
  Excited state 4 (singlet, A)                                     [converged]
  Term symbol:  5 (1) A                                     R^2 =  1.62130e-11
  Excitation energy:                                               9.738249 eV
  Excited state 5 (singlet, A)                                     [converged]
  Term symbol:  6 (1) A                                     R^2 =  8.22143e-11
  Excitation energy:                                              10.158466 eV
  Excited state 6 (singlet, A)                                     [converged]
  Term symbol:  7 (1) A                                     R^2 =  4.64482e-10
  Excitation energy:                                              10.520854 eV
  Excited state 7 (singlet, A)                                     [converged]
  Term symbol:  8 (1) A                                     R^2 =  7.49715e-07
  Excitation energy:                                              11.433863 eV
  Excited state 8 (singlet, A)                                     [converged]
  Term symbol:  9 (1) A                                     R^2 =  2.39020e-08
  Excitation energy:                                              12.068282 eV
  Excited state 9 (singlet, A)                                     [converged]
  Term symbol:  10 (1) A                                    R^2 =  6.71755e-08
  Excitation energy:                                              12.346831 eV
  Excited state 10 (singlet, A)                                     [converged]
  Term symbol:  11 (1) A                                    R^2 =  6.09537e-07
  Excitation energy:                                              12.476805 eV
  Excitation energy:                                               0.220655 eV
  Excitation energy:                                               0.409850 eV
  Excitation energy:                                               0.189195 eV
  Excitation energy:                                               1.006434 eV
  Excitation energy:                                               0.785778 eV
  Excitation energy:                                               0.596584 eV
  Excitation energy:                                               1.426651 eV
  Excitation energy:                                               1.205996 eV
  Excitation energy:                                               1.016801 eV
  Excitation energy:                                               0.420217 eV
  Excitation energy:                                               1.789039 eV
  Excitation energy:                                               1.568383 eV
  Excitation energy:                                               1.379189 eV
  Excitation energy:                                               0.782605 eV
  Excitation energy:                                               0.362388 eV
  Excitation energy:                                               2.702048 eV
  Excitation energy:                                               2.481392 eV
  Excitation energy:                                               2.292198 eV
  Excitation energy:                                               1.695614 eV
  Excitation energy:                                               1.275397 eV
  Excitation energy:                                               0.913009 eV
  Excitation energy:                                               3.336467 eV
  Excitation energy:                                               3.115811 eV
  Excitation energy:                                               2.926617 eV
  Excitation energy:                                               2.330033 eV
  Excitation energy:                                               1.909816 eV
  Excitation energy:                                               1.547428 eV
  Excitation energy:                                               0.634419 eV
  Excitation energy:                                               3.615016 eV
  Excitation energy:                                               3.394361 eV
  Excitation energy:                                               3.205166 eV
  Excitation energy:                                               2.608582 eV
  Excitation energy:                                               2.188365 eV
  Excitation energy:                                               1.825977 eV
  Excitation energy:                                               0.912968 eV
  Excitation energy:                                               0.278549 eV
  Excitation energy:                                               3.744990 eV
  Excitation energy:                                               3.524334 eV
  Excitation energy:                                               3.335140 eV
  Excitation energy:                                               2.738556 eV
  Excitation energy:                                               2.318339 eV
  Excitation energy:                                               1.955951 eV
  Excitation energy:                                               1.042942 eV
  Excitation energy:                                               0.408523 eV
  Excitation energy:                                               0.129974 eV

                    Orbital Energies (a.u.)
 --------------------------------------------------------------

 Alpha MOs
 -- Occupied --
-11.2388 -11.2372  -1.0299  -0.7859  -0.6350  -0.5823  -0.4995  -0.3744

          Ground-State Mulliken Net Atomic Charges

     Atom                 Charge (a.u.)
  ----------------------------------------
      1 H                     0.052371
      2 C                    -0.104745
      3 H                     0.052380
      4 C                    -0.104753
      5 H                     0.052379
      6 H                     0.052369
  ----------------------------------------
  Sum of atomic charges =     0.000000

                    Cartesian Multipole Moments
 -----------------------------------------------------------------
    Charge (ESU x 10^10)
                -0.0000
    Dipole Moment (Debye)
         X      -0.0000      Y       0.0000      Z       0.0000
       Tot       0.0000
    Quadrupole Moments (Debye-Ang)
        XX     -12.2454     XY      -0.1052     YY     -12.2594
        XZ       0.1560     YZ       0.1986     ZZ     -15.6098

 Total job time:  73.87s(wall), 151.66s(cpu)
        *  Thank you very much for using Q-Chem.  Have a nice day.  *
