 Q-Chem 5.4 (devel), Q-Chem, Inc., Pleasanton, CA (2021)
 Q-Chem 5.4.1 for Intel X86 EM64T Linux

User input:
--------------------------------------------------------------
$comment
generated from CCJob.Templates
$end

$rem
sym_ignore = true
method = adc(2)
ee_states = 10
basis = cc-pVDZ
mem_static = 1024
mem_total = 40000
adc_davidson_maxiter = 900
adc_davidson_conv = 6
adc_print = 3
adc_prop_es = true
adc_prop_es2es = true
adc_prop_tpa = true
molden_format = True
state_analysis = true
print_orbitals = 15
gen_scfman = false
fde_export_density = true
fde_details = 3
$end

$molecule
0 1
H -0.023377199895750603 -0.24744281797532505 0.06501074128122916
C -1.0772730266968609 -0.5237484511916766 -0.0022919123885097267
H -1.3015745247601473 -1.5948889324984645 -0.07782515852088054
C -2.0441221926969826 0.3945124865082013 0.006680947911470883
H -1.821879667960069 1.4606329130018798 0.08179364397914854
H -3.102962615395401 0.11594632732476608 -0.060917328018728165
$end
--------------------------------------------------------------

             Standard Nuclear Orientation (Angstroms)
    I     Atom           X                Y                Z
 ----------------------------------------------------------------
    1      H      -0.0233771999    -0.2474428180     0.0650107413
    2      C      -1.0772730267    -0.5237484512    -0.0022919124
    3      H      -1.3015745248    -1.5948889325    -0.0778251585
    4      C      -2.0441221927     0.3945124865     0.0066809479
    5      H      -1.8218796680     1.4606329130     0.0817936440
    6      H      -3.1029626154     0.1159463273    -0.0609173280
 ----------------------------------------------------------------

   10     -78.0396330524      2.50E-09 Convergence criterion met
 Total energy in the final basis set = -78.03963305
  Excited state 1 (singlet, A)                                     [converged]
  Term symbol:  2 (1) A                                     R^2 =  7.14182e-10
  Excitation energy:                                               8.731818 eV
  Excited state 2 (singlet, A)                                     [converged]
  Term symbol:  3 (1) A                                     R^2 =  7.77205e-12
  Excitation energy:                                               8.952283 eV
  Excited state 3 (singlet, A)                                     [converged]
  Term symbol:  4 (1) A                                     R^2 =  2.22776e-11
  Excitation energy:                                               9.141392 eV
  Excited state 4 (singlet, A)                                     [converged]
  Term symbol:  5 (1) A                                     R^2 =  1.65617e-11
  Excitation energy:                                               9.738568 eV
  Excited state 5 (singlet, A)                                     [converged]
  Term symbol:  6 (1) A                                     R^2 =  5.07389e-11
  Excitation energy:                                              10.158417 eV
  Excited state 6 (singlet, A)                                     [converged]
  Term symbol:  7 (1) A                                     R^2 =  4.03315e-10
  Excitation energy:                                              10.520812 eV
  Excited state 7 (singlet, A)                                     [converged]
  Term symbol:  8 (1) A                                     R^2 =  6.03024e-07
  Excitation energy:                                              11.433584 eV
  Excited state 8 (singlet, A)                                     [converged]
  Term symbol:  9 (1) A                                     R^2 =  5.09281e-08
  Excitation energy:                                              12.068309 eV
  Excited state 9 (singlet, A)                                     [converged]
  Term symbol:  10 (1) A                                    R^2 =  1.29836e-07
  Excitation energy:                                              12.346811 eV
  Excited state 10 (singlet, A)                                     [converged]
  Term symbol:  11 (1) A                                    R^2 =  5.26708e-07
  Excitation energy:                                              12.476917 eV
  Excitation energy:                                               0.220465 eV
  Excitation energy:                                               0.409574 eV
  Excitation energy:                                               0.189109 eV
  Excitation energy:                                               1.006750 eV
  Excitation energy:                                               0.786285 eV
  Excitation energy:                                               0.597175 eV
  Excitation energy:                                               1.426599 eV
  Excitation energy:                                               1.206134 eV
  Excitation energy:                                               1.017025 eV
  Excitation energy:                                               0.419849 eV
  Excitation energy:                                               1.788994 eV
  Excitation energy:                                               1.568529 eV
  Excitation energy:                                               1.379420 eV
  Excitation energy:                                               0.782245 eV
  Excitation energy:                                               0.362395 eV
  Excitation energy:                                               2.701766 eV
  Excitation energy:                                               2.481301 eV
  Excitation energy:                                               2.292192 eV
  Excitation energy:                                               1.695016 eV
  Excitation energy:                                               1.275167 eV
  Excitation energy:                                               0.912772 eV
  Excitation energy:                                               3.336491 eV
  Excitation energy:                                               3.116026 eV
  Excitation energy:                                               2.926917 eV
  Excitation energy:                                               2.329742 eV
  Excitation energy:                                               1.909892 eV
  Excitation energy:                                               1.547497 eV
  Excitation energy:                                               0.634726 eV
  Excitation energy:                                               3.614993 eV
  Excitation energy:                                               3.394528 eV
  Excitation energy:                                               3.205419 eV
  Excitation energy:                                               2.608244 eV
  Excitation energy:                                               2.188395 eV
  Excitation energy:                                               1.825999 eV
  Excitation energy:                                               0.913228 eV
  Excitation energy:                                               0.278502 eV
  Excitation energy:                                               3.745099 eV
  Excitation energy:                                               3.524634 eV
  Excitation energy:                                               3.335525 eV
  Excitation energy:                                               2.738349 eV
  Excitation energy:                                               2.318500 eV
  Excitation energy:                                               1.956105 eV
  Excitation energy:                                               1.043333 eV
  Excitation energy:                                               0.408608 eV
  Excitation energy:                                               0.130106 eV

                    Orbital Energies (a.u.)
 --------------------------------------------------------------

 Alpha MOs
 -- Occupied --
-11.2388 -11.2372  -1.0299  -0.7859  -0.6350  -0.5823  -0.4995  -0.3744

          Ground-State Mulliken Net Atomic Charges

     Atom                 Charge (a.u.)
  ----------------------------------------
      1 H                     0.051800
      2 C                    -0.104730
      3 H                     0.052938
      4 C                    -0.104744
      5 H                     0.051810
      6 H                     0.052927
  ----------------------------------------
  Sum of atomic charges =     0.000000

                    Cartesian Multipole Moments
 -----------------------------------------------------------------
    Charge (ESU x 10^10)
                -0.0000
    Dipole Moment (Debye)
         X       0.0028      Y       0.0030      Z       0.0004
       Tot       0.0042
    Quadrupole Moments (Debye-Ang)
        XX     -12.2544     XY      -0.1101     YY     -12.2599
        XZ       0.1555     YZ       0.1986     ZZ     -15.6097

 Total job time:  116.33s(wall), 354.16s(cpu)
        *  Thank you very much for using Q-Chem.  Have a nice day.  *
