 Q-Chem 5.4 (devel), Q-Chem, Inc., Pleasanton, CA (2021)
 Q-Chem 5.4.1 for Intel X86 EM64T Linux

User input:
--------------------------------------------------------------
$comment
generated from CCJob.Templates
$end

$rem
sym_ignore = true
method = adc(2)
ee_states = 10
basis = cc-pVDZ
mem_static = 1024
mem_total = 40000
adc_davidson_maxiter = 900
adc_davidson_conv = 6
adc_print = 3
adc_prop_es = true
adc_prop_es2es = true
adc_prop_tpa = true
molden_format = True
state_analysis = true
print_orbitals = 15
gen_scfman = false
fde_export_density = true
fde_details = 3
$end

$molecule
0 1
H -0.0348278765 -0.2442097827 0.0636489606
C -1.0765972949 -0.5242748755 -0.0023551776
H -1.313264467 -1.5867591607 -0.0757276926
C -2.043634118 0.3926884087 0.0061254933
H -1.8137616575 1.4459188338 0.0804456828
H -3.085977293 0.114931858 -0.0593381042
$end
--------------------------------------------------------------

             Standard Nuclear Orientation (Angstroms)
    I     Atom           X                Y                Z
 ----------------------------------------------------------------
    1      H      -0.0348278765    -0.2442097827     0.0636489606
    2      C      -1.0765972949    -0.5242748755    -0.0023551776
    3      H      -1.3132644670    -1.5867591607    -0.0757276926
    4      C      -2.0436341180     0.3926884087     0.0061254933
    5      H      -1.8137616575     1.4459188338     0.0804456828
    6      H      -3.0859772930     0.1149318580    -0.0593381042
 ----------------------------------------------------------------

   11     -78.0399017778      7.86E-09 Convergence criterion met
 Total energy in the final basis set = -78.03990178
  Excited state 1 (singlet, A)                                     [converged]
  Term symbol:  2 (1) A                                     R^2 =  2.19573e-13
  Excitation energy:                                               8.737616 eV
  Excited state 2 (singlet, A)                                     [converged]
  Term symbol:  3 (1) A                                     R^2 =  4.28486e-13
  Excitation energy:                                               9.039419 eV
  Excited state 3 (singlet, A)                                     [converged]
  Term symbol:  4 (1) A                                     R^2 =  1.04690e-13
  Excitation energy:                                               9.162690 eV
  Excited state 4 (singlet, A)                                     [converged]
  Term symbol:  5 (1) A                                     R^2 =  1.23823e-13
  Excitation energy:                                               9.817212 eV
  Excited state 5 (singlet, A)                                     [converged]
  Term symbol:  6 (1) A                                     R^2 =  1.73731e-13
  Excitation energy:                                              10.203704 eV
  Excited state 6 (singlet, A)                                     [converged]
  Term symbol:  7 (1) A                                     R^2 =  7.33172e-13
  Excitation energy:                                              10.530631 eV
  Excited state 7 (singlet, A)                                     [converged]
  Term symbol:  8 (1) A                                     R^2 =  1.79922e-10
  Excitation energy:                                              11.534029 eV
  Excited state 8 (singlet, A)                                     [converged]
  Term symbol:  9 (1) A                                     R^2 =  6.64563e-11
  Excitation energy:                                              12.153288 eV
  Excited state 9 (singlet, A)                                     [converged]
  Term symbol:  10 (1) A                                    R^2 =  6.88579e-10
  Excitation energy:                                              12.406719 eV
  Excited state 10 (singlet, A)                                     [converged]
  Term symbol:  11 (1) A                                    R^2 =  9.19513e-07
  Excitation energy:                                              12.616679 eV
  Excitation energy:                                               0.301803 eV
  Excitation energy:                                               0.425074 eV
  Excitation energy:                                               0.123271 eV
  Excitation energy:                                               1.079596 eV
  Excitation energy:                                               0.777793 eV
  Excitation energy:                                               0.654522 eV
  Excitation energy:                                               1.466088 eV
  Excitation energy:                                               1.164285 eV
  Excitation energy:                                               1.041014 eV
  Excitation energy:                                               0.386492 eV
  Excitation energy:                                               1.793015 eV
  Excitation energy:                                               1.491211 eV
  Excitation energy:                                               1.367941 eV
  Excitation energy:                                               0.713419 eV
  Excitation energy:                                               0.326927 eV
  Excitation energy:                                               2.796412 eV
  Excitation energy:                                               2.494609 eV
  Excitation energy:                                               2.371338 eV
  Excitation energy:                                               1.716817 eV
  Excitation energy:                                               1.330324 eV
  Excitation energy:                                               1.003398 eV
  Excitation energy:                                               3.415672 eV
  Excitation energy:                                               3.113869 eV
  Excitation energy:                                               2.990598 eV
  Excitation energy:                                               2.336076 eV
  Excitation energy:                                               1.949584 eV
  Excitation energy:                                               1.622657 eV
  Excitation energy:                                               0.619259 eV
  Excitation energy:                                               3.669103 eV
  Excitation energy:                                               3.367299 eV
  Excitation energy:                                               3.244029 eV
  Excitation energy:                                               2.589507 eV
  Excitation energy:                                               2.203015 eV
  Excitation energy:                                               1.876088 eV
  Excitation energy:                                               0.872690 eV
  Excitation energy:                                               0.253431 eV
  Excitation energy:                                               3.879063 eV
  Excitation energy:                                               3.577260 eV
  Excitation energy:                                               3.453989 eV
  Excitation energy:                                               2.799467 eV
  Excitation energy:                                               2.412975 eV
  Excitation energy:                                               2.086049 eV
  Excitation energy:                                               1.082651 eV
  Excitation energy:                                               0.463391 eV
  Excitation energy:                                               0.209960 eV

                    Orbital Energies (a.u.)
 --------------------------------------------------------------

 Alpha MOs
 -- Occupied --
-11.2359 -11.2339  -1.0319  -0.7889  -0.6403  -0.5818  -0.5038  -0.3741

          Ground-State Mulliken Net Atomic Charges

     Atom                 Charge (a.u.)
  ----------------------------------------
      1 H                     0.048454
      2 C                    -0.100098
      3 H                     0.050346
      4 C                    -0.093890
      5 H                     0.047374
      6 H                     0.047813
  ----------------------------------------
  Sum of atomic charges =     0.000000

                    Cartesian Multipole Moments
 -----------------------------------------------------------------
    Charge (ESU x 10^10)
                 0.0000
    Dipole Moment (Debye)
         X      -0.0013      Y       0.0063      Z       0.0019
       Tot       0.0067
    Quadrupole Moments (Debye-Ang)
        XX     -12.2202     XY      -0.0663     YY     -12.2698
        XZ       0.1519     YZ       0.1932     ZZ     -15.5533

 Total job time:  111.11s(wall), 344.38s(cpu)
        *  Thank you very much for using Q-Chem.  Have a nice day.  *
