 Q-Chem 5.4 (devel), Q-Chem, Inc., Pleasanton, CA (2021)
 Q-Chem 5.4.1 for Intel X86 EM64T Linux

User input:
--------------------------------------------------------------
$comment
generated from CCJob.Templates
$end

$rem
sym_ignore = true
method = adc(2)
ee_states = 10
basis = cc-pVDZ
mem_static = 1024
mem_total = 40000
adc_davidson_maxiter = 900
adc_davidson_conv = 6
adc_print = 3
adc_prop_es = true
adc_prop_es2es = true
adc_prop_tpa = true
molden_format = True
state_analysis = true
print_orbitals = 15
gen_scfman = false
fde_export_density = true
fde_details = 3
$end

$molecule
0 1
H -0.021160267542532616 -0.24721633393561995 0.0648715252620449
C -1.0764052745761703 -0.5261957235640877 -0.0020282283502425324
H -1.3005254125993995 -1.5936312762875984 -0.07725546643453617
C -2.044017328689664 0.39126157401636136 0.006980579955082298
H -1.8215332239037594 1.4618042051998827 0.08168664796491984
H -3.1008695630606224 0.11538857924790973 -0.0603416199316624
$end
--------------------------------------------------------------

             Standard Nuclear Orientation (Angstroms)
    I     Atom           X                Y                Z
 ----------------------------------------------------------------
    1      H      -0.0211602675    -0.2472163339     0.0648715253
    2      C      -1.0764052746    -0.5261957236    -0.0020282284
    3      H      -1.3005254126    -1.5936312763    -0.0772554664
    4      C      -2.0440173287     0.3912615740     0.0069805800
    5      H      -1.8215332239     1.4618042052     0.0816866480
    6      H      -3.1008695631     0.1153885792    -0.0603416199
 ----------------------------------------------------------------

   11     -78.0396480032      6.25E-09 Convergence criterion met
 Total energy in the final basis set = -78.03964800
  Excited state 1 (singlet, A)                                     [converged]
  Term symbol:  2 (1) A                                     R^2 =  7.46217e-14
  Excitation energy:                                               8.731813 eV
  Excited state 2 (singlet, A)                                     [converged]
  Term symbol:  3 (1) A                                     R^2 =  1.68832e-13
  Excitation energy:                                               8.952400 eV
  Excited state 3 (singlet, A)                                     [converged]
  Term symbol:  4 (1) A                                     R^2 =  1.65076e-13
  Excitation energy:                                               9.141644 eV
  Excited state 4 (singlet, A)                                     [converged]
  Term symbol:  5 (1) A                                     R^2 =  3.31879e-13
  Excitation energy:                                               9.738247 eV
  Excited state 5 (singlet, A)                                     [converged]
  Term symbol:  6 (1) A                                     R^2 =  3.72511e-13
  Excitation energy:                                              10.158461 eV
  Excited state 6 (singlet, A)                                     [converged]
  Term symbol:  7 (1) A                                     R^2 =  5.25337e-13
  Excitation energy:                                              10.520850 eV
  Excited state 7 (singlet, A)                                     [converged]
  Term symbol:  8 (1) A                                     R^2 =  1.65336e-09
  Excitation energy:                                              11.433774 eV
  Excited state 8 (singlet, A)                                     [converged]
  Term symbol:  9 (1) A                                     R^2 =  1.26786e-10
  Excitation energy:                                              12.068303 eV
  Excited state 9 (singlet, A)                                     [converged]
  Term symbol:  10 (1) A                                    R^2 =  1.27731e-09
  Excitation energy:                                              12.346820 eV
  Excited state 10 (singlet, A)                                     [converged]
  Term symbol:  11 (1) A                                    R^2 =  9.30625e-07
  Excitation energy:                                              12.476749 eV
  Excitation energy:                                               0.220587 eV
  Excitation energy:                                               0.409831 eV
  Excitation energy:                                               0.189244 eV
  Excitation energy:                                               1.006434 eV
  Excitation energy:                                               0.785847 eV
  Excitation energy:                                               0.596603 eV
  Excitation energy:                                               1.426648 eV
  Excitation energy:                                               1.206061 eV
  Excitation energy:                                               1.016817 eV
  Excitation energy:                                               0.420214 eV
  Excitation energy:                                               1.789037 eV
  Excitation energy:                                               1.568450 eV
  Excitation energy:                                               1.379206 eV
  Excitation energy:                                               0.782603 eV
  Excitation energy:                                               0.362389 eV
  Excitation energy:                                               2.701961 eV
  Excitation energy:                                               2.481374 eV
  Excitation energy:                                               2.292130 eV
  Excitation energy:                                               1.695527 eV
  Excitation energy:                                               1.275313 eV
  Excitation energy:                                               0.912924 eV
  Excitation energy:                                               3.336490 eV
  Excitation energy:                                               3.115903 eV
  Excitation energy:                                               2.926660 eV
  Excitation energy:                                               2.330056 eV
  Excitation energy:                                               1.909842 eV
  Excitation energy:                                               1.547453 eV
  Excitation energy:                                               0.634529 eV
  Excitation energy:                                               3.615007 eV
  Excitation energy:                                               3.394420 eV
  Excitation energy:                                               3.205176 eV
  Excitation energy:                                               2.608573 eV
  Excitation energy:                                               2.188359 eV
  Excitation energy:                                               1.825970 eV
  Excitation energy:                                               0.913046 eV
  Excitation energy:                                               0.278517 eV
  Excitation energy:                                               3.744936 eV
  Excitation energy:                                               3.524349 eV
  Excitation energy:                                               3.335105 eV
  Excitation energy:                                               2.738502 eV
  Excitation energy:                                               2.318288 eV
  Excitation energy:                                               1.955899 eV
  Excitation energy:                                               1.042975 eV
  Excitation energy:                                               0.408445 eV
  Excitation energy:                                               0.129929 eV

                    Orbital Energies (a.u.)
 --------------------------------------------------------------

 Alpha MOs
 -- Occupied --
-11.2388 -11.2371  -1.0299  -0.7859  -0.6350  -0.5823  -0.4995  -0.3744

          Ground-State Mulliken Net Atomic Charges

     Atom                 Charge (a.u.)
  ----------------------------------------
      1 H                     0.052308
      2 C                    -0.103403
      3 H                     0.052180
      4 C                    -0.106092
      5 H                     0.052621
      6 H                     0.052386
  ----------------------------------------
  Sum of atomic charges =     0.000000

                    Cartesian Multipole Moments
 -----------------------------------------------------------------
    Charge (ESU x 10^10)
                -0.0000
    Dipole Moment (Debye)
         X      -0.0006      Y      -0.0004      Z      -0.0009
       Tot       0.0011
    Quadrupole Moments (Debye-Ang)
        XX     -12.2400     XY      -0.1043     YY     -12.2630
        XZ       0.1568     YZ       0.1976     ZZ     -15.6100

 Total job time:  144.04s(wall), 429.10s(cpu)
        *  Thank you very much for using Q-Chem.  Have a nice day.  *
