 Q-Chem 5.4 (devel), Q-Chem, Inc., Pleasanton, CA (2021)
 Q-Chem 5.4.1 for Intel X86 EM64T Linux

User input:
--------------------------------------------------------------
$comment
generated from CCJob.Templates
$end

$rem
sym_ignore = true
method = adc(2)
ee_states = 10
basis = cc-pVDZ
mem_static = 1024
mem_total = 40000
adc_davidson_maxiter = 900
adc_davidson_conv = 6
adc_print = 3
adc_prop_es = true
adc_prop_es2es = true
adc_prop_tpa = true
molden_format = True
state_analysis = true
print_orbitals = 15
gen_scfman = false
fde_export_density = true
fde_details = 3
$end

$molecule
0 1
H -0.0348278765 -0.28420978269999997 0.0636489606
C -1.0765972949 -0.5242748755 -0.0023551776
H -1.313264467 -1.5767591607 -0.0757276926
C -2.043634118 0.3926884087 0.0061254933
H -1.8137616575 1.4459188338 0.0804456828
H -3.085977293 0.114931858 -0.0593381042
$end
--------------------------------------------------------------

             Standard Nuclear Orientation (Angstroms)
    I     Atom           X                Y                Z
 ----------------------------------------------------------------
    1      H      -0.0348278765    -0.2842097827     0.0636489606
    2      C      -1.0765972949    -0.5242748755    -0.0023551776
    3      H      -1.3132644670    -1.5767591607    -0.0757276926
    4      C      -2.0436341180     0.3926884087     0.0061254933
    5      H      -1.8137616575     1.4459188338     0.0804456828
    6      H      -3.0859772930     0.1149318580    -0.0593381042
 ----------------------------------------------------------------

   11     -78.0397354588      7.93E-09 Convergence criterion met
 Total energy in the final basis set = -78.03973546
  Excited state 1 (singlet, A)                                     [converged]
  Term symbol:  2 (1) A                                     R^2 =  8.36965e-14
  Excitation energy:                                               8.733969 eV
  Excited state 2 (singlet, A)                                     [converged]
  Term symbol:  3 (1) A                                     R^2 =  1.11658e-13
  Excitation energy:                                               9.027334 eV
  Excited state 3 (singlet, A)                                     [converged]
  Term symbol:  4 (1) A                                     R^2 =  9.55826e-14
  Excitation energy:                                               9.203464 eV
  Excited state 4 (singlet, A)                                     [converged]
  Term symbol:  5 (1) A                                     R^2 =  6.60914e-14
  Excitation energy:                                               9.847938 eV
  Excited state 5 (singlet, A)                                     [converged]
  Term symbol:  6 (1) A                                     R^2 =  1.62673e-13
  Excitation energy:                                              10.236783 eV
  Excited state 6 (singlet, A)                                     [converged]
  Term symbol:  7 (1) A                                     R^2 =  4.52761e-13
  Excitation energy:                                              10.566060 eV
  Excited state 7 (singlet, A)                                     [converged]
  Term symbol:  8 (1) A                                     R^2 =  2.16556e-12
  Excitation energy:                                              11.566713 eV
  Excited state 8 (singlet, A)                                     [converged]
  Term symbol:  9 (1) A                                     R^2 =  5.54053e-12
  Excitation energy:                                              12.144751 eV
  Excited state 9 (singlet, A)                                     [converged]
  Term symbol:  10 (1) A                                    R^2 =  1.05798e-10
  Excitation energy:                                              12.403973 eV
  Excited state 10 (singlet, A)                                     [converged]
  Term symbol:  11 (1) A                                    R^2 =  8.44689e-07
  Excitation energy:                                              12.646352 eV
  Excitation energy:                                               0.293365 eV
  Excitation energy:                                               0.469495 eV
  Excitation energy:                                               0.176130 eV
  Excitation energy:                                               1.113969 eV
  Excitation energy:                                               0.820604 eV
  Excitation energy:                                               0.644474 eV
  Excitation energy:                                               1.502814 eV
  Excitation energy:                                               1.209449 eV
  Excitation energy:                                               1.033319 eV
  Excitation energy:                                               0.388845 eV
  Excitation energy:                                               1.832092 eV
  Excitation energy:                                               1.538726 eV
  Excitation energy:                                               1.362596 eV
  Excitation energy:                                               0.718122 eV
  Excitation energy:                                               0.329277 eV
  Excitation energy:                                               2.832744 eV
  Excitation energy:                                               2.539379 eV
  Excitation energy:                                               2.363249 eV
  Excitation energy:                                               1.718775 eV
  Excitation energy:                                               1.329930 eV
  Excitation energy:                                               1.000652 eV
  Excitation energy:                                               3.410783 eV
  Excitation energy:                                               3.117418 eV
  Excitation energy:                                               2.941288 eV
  Excitation energy:                                               2.296813 eV
  Excitation energy:                                               1.907969 eV
  Excitation energy:                                               1.578691 eV
  Excitation energy:                                               0.578039 eV
  Excitation energy:                                               3.670004 eV
  Excitation energy:                                               3.376639 eV
  Excitation energy:                                               3.200509 eV
  Excitation energy:                                               2.556035 eV
  Excitation energy:                                               2.167190 eV
  Excitation energy:                                               1.837913 eV
  Excitation energy:                                               0.837261 eV
  Excitation energy:                                               0.259222 eV
  Excitation energy:                                               3.912384 eV
  Excitation energy:                                               3.619018 eV
  Excitation energy:                                               3.442888 eV
  Excitation energy:                                               2.798414 eV
  Excitation energy:                                               2.409569 eV
  Excitation energy:                                               2.080292 eV
  Excitation energy:                                               1.079640 eV
  Excitation energy:                                               0.501601 eV
  Excitation energy:                                               0.242379 eV

                    Orbital Energies (a.u.)
 --------------------------------------------------------------

 Alpha MOs
 -- Occupied --
-11.2351 -11.2331  -1.0322  -0.7922  -0.6400  -0.5849  -0.5039  -0.3740

          Ground-State Mulliken Net Atomic Charges

     Atom                 Charge (a.u.)
  ----------------------------------------
      1 H                     0.045341
      2 C                    -0.092102
      3 H                     0.045624
      4 C                    -0.094993
      5 H                     0.047644
      6 H                     0.048487
  ----------------------------------------
  Sum of atomic charges =     0.000000

                    Cartesian Multipole Moments
 -----------------------------------------------------------------
    Charge (ESU x 10^10)
                 0.0000
    Dipole Moment (Debye)
         X       0.0085      Y      -0.0059      Z       0.0029
       Tot       0.0108
    Quadrupole Moments (Debye-Ang)
        XX     -12.1902     XY      -0.1197     YY     -12.2922
        XZ       0.1508     YZ       0.1873     ZZ     -15.5271

 Total job time:  84.20s(wall), 238.38s(cpu)
        *  Thank you very much for using Q-Chem.  Have a nice day.  *
