 Q-Chem 5.4 (devel), Q-Chem, Inc., Pleasanton, CA (2021)
 Q-Chem 5.4.1 for Intel X86 EM64T Linux

User input:
--------------------------------------------------------------
$comment
generated from CCJob.Templates
$end

$rem
sym_ignore = true
method = adc(2)
ee_states = 10
basis = cc-pVDZ
mem_static = 1024
mem_total = 40000
adc_davidson_maxiter = 900
adc_davidson_conv = 6
adc_print = 3
adc_prop_es = true
adc_prop_es2es = true
adc_prop_tpa = true
molden_format = True
state_analysis = true
print_orbitals = 15
gen_scfman = false
fde_export_density = true
fde_details = 3
$end

$molecule
0 1
H -0.0348278765 -0.2442097827 0.0636489606
C -1.0365972949 -0.5242748755 -0.0023551776
H -1.313264467 -1.5767591607 -0.0757276926
C -2.043634118 0.3926884087 0.0061254933
H -1.8137616575 1.4459188338 0.0804456828
H -3.085977293 0.114931858 -0.0593381042
$end
--------------------------------------------------------------

             Standard Nuclear Orientation (Angstroms)
    I     Atom           X                Y                Z
 ----------------------------------------------------------------
    1      H      -0.0348278765    -0.2442097827     0.0636489606
    2      C      -1.0365972949    -0.5242748755    -0.0023551776
    3      H      -1.3132644670    -1.5767591607    -0.0757276926
    4      C      -2.0436341180     0.3926884087     0.0061254933
    5      H      -1.8137616575     1.4459188338     0.0804456828
    6      H      -3.0859772930     0.1149318580    -0.0593381042
 ----------------------------------------------------------------

   11     -78.0363135986      6.98E-09 Convergence criterion met
 Total energy in the final basis set = -78.03631360
  Excited state 1 (singlet, A)                                     [converged]
  Term symbol:  2 (1) A                                     R^2 =  1.79579e-14
  Excitation energy:                                               8.486740 eV
  Excited state 2 (singlet, A)                                     [converged]
  Term symbol:  3 (1) A                                     R^2 =  1.64185e-14
  Excitation energy:                                               9.008636 eV
  Excited state 3 (singlet, A)                                     [converged]
  Term symbol:  4 (1) A                                     R^2 =  3.09437e-14
  Excitation energy:                                               9.055915 eV
  Excited state 4 (singlet, A)                                     [converged]
  Term symbol:  5 (1) A                                     R^2 =  4.54669e-14
  Excitation energy:                                               9.820089 eV
  Excited state 5 (singlet, A)                                     [converged]
  Term symbol:  6 (1) A                                     R^2 =  7.68345e-14
  Excitation energy:                                              10.007526 eV
  Excited state 6 (singlet, A)                                     [converged]
  Term symbol:  7 (1) A                                     R^2 =  5.96349e-14
  Excitation energy:                                              10.357844 eV
  Excited state 7 (singlet, A)                                     [converged]
  Term symbol:  8 (1) A                                     R^2 =  4.10314e-13
  Excitation energy:                                              11.688888 eV
  Excited state 8 (singlet, A)                                     [converged]
  Term symbol:  9 (1) A                                     R^2 =  1.99499e-13
  Excitation energy:                                              12.013387 eV
  Excited state 9 (singlet, A)                                     [converged]
  Term symbol:  10 (1) A                                    R^2 =  3.49187e-13
  Excitation energy:                                              12.262646 eV
  Excited state 10 (singlet, A)                                     [converged]
  Term symbol:  11 (1) A                                    R^2 =  9.94496e-07
  Excitation energy:                                              12.851790 eV
  Excitation energy:                                               0.521897 eV
  Excitation energy:                                               0.569175 eV
  Excitation energy:                                               0.047278 eV
  Excitation energy:                                               1.333349 eV
  Excitation energy:                                               0.811453 eV
  Excitation energy:                                               0.764175 eV
  Excitation energy:                                               1.520786 eV
  Excitation energy:                                               0.998889 eV
  Excitation energy:                                               0.951611 eV
  Excitation energy:                                               0.187436 eV
  Excitation energy:                                               1.871104 eV
  Excitation energy:                                               1.349207 eV
  Excitation energy:                                               1.301929 eV
  Excitation energy:                                               0.537755 eV
  Excitation energy:                                               0.350318 eV
  Excitation energy:                                               3.202148 eV
  Excitation energy:                                               2.680251 eV
  Excitation energy:                                               2.632973 eV
  Excitation energy:                                               1.868799 eV
  Excitation energy:                                               1.681362 eV
  Excitation energy:                                               1.331044 eV
  Excitation energy:                                               3.526647 eV
  Excitation energy:                                               3.004750 eV
  Excitation energy:                                               2.957472 eV
  Excitation energy:                                               2.193298 eV
  Excitation energy:                                               2.005861 eV
  Excitation energy:                                               1.655543 eV
  Excitation energy:                                               0.324499 eV
  Excitation energy:                                               3.775906 eV
  Excitation energy:                                               3.254009 eV
  Excitation energy:                                               3.206731 eV
  Excitation energy:                                               2.442556 eV
  Excitation energy:                                               2.255120 eV
  Excitation energy:                                               1.904802 eV
  Excitation energy:                                               0.573758 eV
  Excitation energy:                                               0.249259 eV
  Excitation energy:                                               4.365050 eV
  Excitation energy:                                               3.843153 eV
  Excitation energy:                                               3.795875 eV
  Excitation energy:                                               3.031700 eV
  Excitation energy:                                               2.844264 eV
  Excitation energy:                                               2.493946 eV
  Excitation energy:                                               1.162902 eV
  Excitation energy:                                               0.838403 eV
  Excitation energy:                                               0.589144 eV

                    Orbital Energies (a.u.)
 --------------------------------------------------------------

 Alpha MOs
 -- Occupied --
-11.2387 -11.2358  -1.0252  -0.7950  -0.6429  -0.5763  -0.5115  -0.3670

          Ground-State Mulliken Net Atomic Charges

     Atom                 Charge (a.u.)
  ----------------------------------------
      1 H                     0.040800
      2 C                    -0.082744
      3 H                     0.051242
      4 C                    -0.108085
      5 H                     0.047939
      6 H                     0.050848
  ----------------------------------------
  Sum of atomic charges =     0.000000

                    Cartesian Multipole Moments
 -----------------------------------------------------------------
    Charge (ESU x 10^10)
                 0.0000
    Dipole Moment (Debye)
         X       0.0008      Y       0.0152      Z       0.0048
       Tot       0.0160
    Quadrupole Moments (Debye-Ang)
        XX     -12.0864     XY      -0.0452     YY     -12.3640
        XZ       0.1603     YZ       0.1927     ZZ     -15.6193

 Total job time:  77.86s(wall), 257.29s(cpu)
        *  Thank you very much for using Q-Chem.  Have a nice day.  *
