 Q-Chem 5.4 (devel), Q-Chem, Inc., Pleasanton, CA (2021)
 Q-Chem 5.4.1 for Intel X86 EM64T Linux

User input:
--------------------------------------------------------------
$comment
generated from CCJob.Templates
$end

$rem
sym_ignore = true
method = adc(2)
ee_states = 10
basis = cc-pVDZ
mem_static = 1024
mem_total = 30000
adc_davidson_maxiter = 900
adc_davidson_conv = 6
adc_print = 3
adc_prop_es = true
adc_prop_es2es = true
adc_prop_tpa = true
molden_format = True
state_analysis = true
print_orbitals = 15
gen_scfman = false
fde_export_density = true
fde_details = 3
$end

$molecule
0 1
H -0.0298278765 -0.2442097827 0.0636489606
C -1.0765972949 -0.5242748755 -0.0023551776
H -1.313264467 -1.5767591607 -0.0757276926
C -2.043634118 0.3926884087 0.0061254933
H -1.8137616575 1.4459188338 0.0804456828
H -3.085977293 0.114931858 -0.0593381042
$end
--------------------------------------------------------------

             Standard Nuclear Orientation (Angstroms)
    I     Atom           X                Y                Z
 ----------------------------------------------------------------
    1      H      -0.0298278765    -0.2442097827     0.0636489606
    2      C      -1.0765972949    -0.5242748755    -0.0023551776
    3      H      -1.3132644670    -1.5767591607    -0.0757276926
    4      C      -2.0436341180     0.3926884087     0.0061254933
    5      H      -1.8137616575     1.4459188338     0.0804456828
    6      H      -3.0859772930     0.1149318580    -0.0593381042
 ----------------------------------------------------------------

   11     -78.0399308498      7.81E-09 Convergence criterion met
 Total energy in the final basis set = -78.03993085
  Excited state 1 (singlet, A)                                     [converged]
  Term symbol:  2 (1) A                                     R^2 =  2.35943e-14
  Excitation energy:                                               8.737361 eV
  Excited state 2 (singlet, A)                                     [converged]
  Term symbol:  3 (1) A                                     R^2 =  2.58380e-14
  Excitation energy:                                               9.047153 eV
  Excited state 3 (singlet, A)                                     [converged]
  Term symbol:  4 (1) A                                     R^2 =  1.60372e-14
  Excitation energy:                                               9.167068 eV
  Excited state 4 (singlet, A)                                     [converged]
  Term symbol:  5 (1) A                                     R^2 =  3.05652e-14
  Excitation energy:                                               9.824922 eV
  Excited state 5 (singlet, A)                                     [converged]
  Term symbol:  6 (1) A                                     R^2 =  1.64878e-13
  Excitation energy:                                              10.208206 eV
  Excited state 6 (singlet, A)                                     [converged]
  Term symbol:  7 (1) A                                     R^2 =  4.22370e-13
  Excitation energy:                                              10.533201 eV
  Excited state 7 (singlet, A)                                     [converged]
  Term symbol:  8 (1) A                                     R^2 =  7.25566e-11
  Excitation energy:                                              11.545853 eV
  Excited state 8 (singlet, A)                                     [converged]
  Term symbol:  9 (1) A                                     R^2 =  8.71034e-11
  Excitation energy:                                              12.159265 eV
  Excited state 9 (singlet, A)                                     [converged]
  Term symbol:  10 (1) A                                    R^2 =  1.10041e-09
  Excitation energy:                                              12.411829 eV
  Excited state 10 (singlet, A)                                     [converged]
  Term symbol:  11 (1) A                                    R^2 =  8.21851e-07
  Excitation energy:                                              12.631033 eV
  Excitation energy:                                               0.309792 eV
  Excitation energy:                                               0.429707 eV
  Excitation energy:                                               0.119915 eV
  Excitation energy:                                               1.087561 eV
  Excitation energy:                                               0.777769 eV
  Excitation energy:                                               0.657854 eV
  Excitation energy:                                               1.470845 eV
  Excitation energy:                                               1.161053 eV
  Excitation energy:                                               1.041138 eV
  Excitation energy:                                               0.383285 eV
  Excitation energy:                                               1.795840 eV
  Excitation energy:                                               1.486048 eV
  Excitation energy:                                               1.366133 eV
  Excitation energy:                                               0.708279 eV
  Excitation energy:                                               0.324994 eV
  Excitation energy:                                               2.808492 eV
  Excitation energy:                                               2.498700 eV
  Excitation energy:                                               2.378785 eV
  Excitation energy:                                               1.720931 eV
  Excitation energy:                                               1.337647 eV
  Excitation energy:                                               1.012653 eV
  Excitation energy:                                               3.421904 eV
  Excitation energy:                                               3.112112 eV
  Excitation energy:                                               2.992197 eV
  Excitation energy:                                               2.334343 eV
  Excitation energy:                                               1.951059 eV
  Excitation energy:                                               1.626065 eV
  Excitation energy:                                               0.613412 eV
  Excitation energy:                                               3.674468 eV
  Excitation energy:                                               3.364676 eV
  Excitation energy:                                               3.244761 eV
  Excitation energy:                                               2.586907 eV
  Excitation energy:                                               2.203622 eV
  Excitation energy:                                               1.878628 eV
  Excitation energy:                                               0.865976 eV
  Excitation energy:                                               0.252563 eV
  Excitation energy:                                               3.893672 eV
  Excitation energy:                                               3.583880 eV
  Excitation energy:                                               3.463965 eV
  Excitation energy:                                               2.806111 eV
  Excitation energy:                                               2.422826 eV
  Excitation energy:                                               2.097832 eV
  Excitation energy:                                               1.085179 eV
  Excitation energy:                                               0.471767 eV
  Excitation energy:                                               0.219204 eV

                    Orbital Energies (a.u.)
 --------------------------------------------------------------

 Alpha MOs
 -- Occupied --
-11.2355 -11.2337  -1.0321  -0.7894  -0.6407  -0.5818  -0.5042  -0.3740

          Ground-State Mulliken Net Atomic Charges

     Atom                 Charge (a.u.)
  ----------------------------------------
      1 H                     0.049498
      2 C                    -0.097638
      3 H                     0.047815
      4 C                    -0.094702
      5 H                     0.047268
      6 H                     0.047759
  ----------------------------------------
  Sum of atomic charges =     0.000000

                    Cartesian Multipole Moments
 -----------------------------------------------------------------
    Charge (ESU x 10^10)
                 0.0000
    Dipole Moment (Debye)
         X      -0.0039      Y       0.0013      Z       0.0009
       Tot       0.0042
    Quadrupole Moments (Debye-Ang)
        XX     -12.2067     XY      -0.0584     YY     -12.2709
        XZ       0.1531     YZ       0.1935     ZZ     -15.5471

 Total job time:  137.81s(wall), 320.67s(cpu)
        *  Thank you very much for using Q-Chem.  Have a nice day.  *
