 Q-Chem 5.4 (devel), Q-Chem, Inc., Pleasanton, CA (2021)
 Q-Chem 5.4.1 for Intel X86 EM64T Linux

User input:
--------------------------------------------------------------
$comment
generated from CCJob.Templates
$end

$rem
sym_ignore = true
method = adc(2)
ee_states = 10
basis = cc-pVDZ
mem_static = 1024
mem_total = 40000
adc_davidson_maxiter = 900
adc_davidson_conv = 6
adc_print = 3
adc_prop_es = true
adc_prop_es2es = true
adc_prop_tpa = true
molden_format = True
state_analysis = true
print_orbitals = 15
gen_scfman = false
fde_export_density = true
fde_details = 3
$end

$molecule
0 1
H -0.0348278765 -0.2442097827 0.1036489606
C -1.0765972949 -0.5242748755 -0.0023551776
H -1.313264467 -1.5767591607 -0.0757276926
C -2.043634118 0.3926884087 0.0061254933
H -1.8137616575 1.4459188338 0.0804456828
H -3.085977293 0.114931858 -0.0593381042
$end
--------------------------------------------------------------

             Standard Nuclear Orientation (Angstroms)
    I     Atom           X                Y                Z
 ----------------------------------------------------------------
    1      H      -0.0348278765    -0.2442097827     0.1036489606
    2      C      -1.0765972949    -0.5242748755    -0.0023551776
    3      H      -1.3132644670    -1.5767591607    -0.0757276926
    4      C      -2.0436341180     0.3926884087     0.0061254933
    5      H      -1.8137616575     1.4459188338     0.0804456828
    6      H      -3.0859772930     0.1149318580    -0.0593381042
 ----------------------------------------------------------------

   11     -78.0398478905      7.01E-09 Convergence criterion met
 Total energy in the final basis set = -78.03984789
  Excited state 1 (singlet, A)                                     [converged]
  Term symbol:  2 (1) A                                     R^2 =  1.63790e-13
  Excitation energy:                                               8.727534 eV
  Excited state 2 (singlet, A)                                     [converged]
  Term symbol:  3 (1) A                                     R^2 =  5.61952e-14
  Excitation energy:                                               9.055859 eV
  Excited state 3 (singlet, A)                                     [converged]
  Term symbol:  4 (1) A                                     R^2 =  1.13697e-13
  Excitation energy:                                               9.165805 eV
  Excited state 4 (singlet, A)                                     [converged]
  Term symbol:  5 (1) A                                     R^2 =  1.17632e-13
  Excitation energy:                                               9.828616 eV
  Excited state 5 (singlet, A)                                     [converged]
  Term symbol:  6 (1) A                                     R^2 =  3.24228e-13
  Excitation energy:                                              10.206991 eV
  Excited state 6 (singlet, A)                                     [converged]
  Term symbol:  7 (1) A                                     R^2 =  5.36278e-13
  Excitation energy:                                              10.531386 eV
  Excited state 7 (singlet, A)                                     [converged]
  Term symbol:  8 (1) A                                     R^2 =  1.55621e-10
  Excitation energy:                                              11.550551 eV
  Excited state 8 (singlet, A)                                     [converged]
  Term symbol:  9 (1) A                                     R^2 =  8.78100e-09
  Excitation energy:                                              12.161533 eV
  Excited state 9 (singlet, A)                                     [converged]
  Term symbol:  10 (1) A                                    R^2 =  7.30721e-08
  Excitation energy:                                              12.413446 eV
  Excited state 10 (singlet, A)                                     [converged]
  Term symbol:  11 (1) A                                    R^2 =  7.17095e-07
  Excitation energy:                                              12.638346 eV
  Excitation energy:                                               0.328325 eV
  Excitation energy:                                               0.438271 eV
  Excitation energy:                                               0.109946 eV
  Excitation energy:                                               1.101082 eV
  Excitation energy:                                               0.772757 eV
  Excitation energy:                                               0.662811 eV
  Excitation energy:                                               1.479457 eV
  Excitation energy:                                               1.151132 eV
  Excitation energy:                                               1.041186 eV
  Excitation energy:                                               0.378375 eV
  Excitation energy:                                               1.803853 eV
  Excitation energy:                                               1.475528 eV
  Excitation energy:                                               1.365581 eV
  Excitation energy:                                               0.702771 eV
  Excitation energy:                                               0.324396 eV
  Excitation energy:                                               2.823017 eV
  Excitation energy:                                               2.494692 eV
  Excitation energy:                                               2.384746 eV
  Excitation energy:                                               1.721935 eV
  Excitation energy:                                               1.343560 eV
  Excitation energy:                                               1.019164 eV
  Excitation energy:                                               3.433999 eV
  Excitation energy:                                               3.105674 eV
  Excitation energy:                                               2.995727 eV
  Excitation energy:                                               2.332917 eV
  Excitation energy:                                               1.954542 eV
  Excitation energy:                                               1.630146 eV
  Excitation energy:                                               0.610982 eV
  Excitation energy:                                               3.685912 eV
  Excitation energy:                                               3.357587 eV
  Excitation energy:                                               3.247641 eV
  Excitation energy:                                               2.584830 eV
  Excitation energy:                                               2.206455 eV
  Excitation energy:                                               1.882060 eV
  Excitation energy:                                               0.862895 eV
  Excitation energy:                                               0.251914 eV
  Excitation energy:                                               3.910813 eV
  Excitation energy:                                               3.582488 eV
  Excitation energy:                                               3.472541 eV
  Excitation energy:                                               2.809731 eV
  Excitation energy:                                               2.431356 eV
  Excitation energy:                                               2.106960 eV
  Excitation energy:                                               1.087796 eV
  Excitation energy:                                               0.476814 eV
  Excitation energy:                                               0.224900 eV

                    Orbital Energies (a.u.)
 --------------------------------------------------------------

 Alpha MOs
 -- Occupied --
-11.2353 -11.2336  -1.0322  -0.7894  -0.6410  -0.5817  -0.5044  -0.3740

          Ground-State Mulliken Net Atomic Charges

     Atom                 Charge (a.u.)
  ----------------------------------------
      1 H                     0.049060
      2 C                    -0.096771
      3 H                     0.047854
      4 C                    -0.095045
      5 H                     0.047224
      6 H                     0.047678
  ----------------------------------------
  Sum of atomic charges =     0.000000

                    Cartesian Multipole Moments
 -----------------------------------------------------------------
    Charge (ESU x 10^10)
                -0.0000
    Dipole Moment (Debye)
         X      -0.0059      Y       0.0007      Z       0.0289
       Tot       0.0295
    Quadrupole Moments (Debye-Ang)
        XX     -12.2116     XY      -0.0557     YY     -12.2680
        XZ       0.1603     YZ       0.1920     ZZ     -15.5382

 Total job time:  87.89s(wall), 292.17s(cpu)
        *  Thank you very much for using Q-Chem.  Have a nice day.  *
