 Q-Chem 5.4 (devel), Q-Chem, Inc., Pleasanton, CA (2021)
 Q-Chem 5.4.1 for Intel X86 EM64T Linux

User input:
--------------------------------------------------------------
$comment
generated from CCJob.Templates
$end

$rem
sym_ignore = true
method = adc(2)
ee_states = 10
basis = cc-pVDZ
mem_static = 1024
mem_total = 30000
adc_davidson_maxiter = 900
adc_davidson_conv = 6
adc_print = 3
adc_prop_es = true
adc_prop_es2es = true
adc_prop_tpa = true
molden_format = True
state_analysis = true
print_orbitals = 15
gen_scfman = false
fde_export_density = true
fde_details = 3
$end

$molecule
0 1
H -0.0348278765 -0.2442097827 0.0636489606
C -1.0765972949 -0.5242748755 -0.0023551776
H -1.313264467 -1.5767591607 -0.0757276926
C -2.043634118 0.3926884087 0.0061254933
H -1.8087616575 1.4459188338 0.0804456828
H -3.085977293 0.114931858 -0.0593381042
$end
--------------------------------------------------------------

             Standard Nuclear Orientation (Angstroms)
    I     Atom           X                Y                Z
 ----------------------------------------------------------------
    1      H      -0.0348278765    -0.2442097827     0.0636489606
    2      C      -1.0765972949    -0.5242748755    -0.0023551776
    3      H      -1.3132644670    -1.5767591607    -0.0757276926
    4      C      -2.0436341180     0.3926884087     0.0061254933
    5      H      -1.8087616575     1.4459188338     0.0804456828
    6      H      -3.0859772930     0.1149318580    -0.0593381042
 ----------------------------------------------------------------

   10     -78.0399192455      9.51E-09 Convergence criterion met
 Total energy in the final basis set = -78.03991925
  Excited state 1 (singlet, A)                                     [converged]
  Term symbol:  2 (1) A                                     R^2 =  1.55422e-13
  Excitation energy:                                               8.737516 eV
  Excited state 2 (singlet, A)                                     [converged]
  Term symbol:  3 (1) A                                     R^2 =  1.27039e-13
  Excitation energy:                                               9.057001 eV
  Excited state 3 (singlet, A)                                     [converged]
  Term symbol:  4 (1) A                                     R^2 =  9.55918e-14
  Excitation energy:                                               9.166473 eV
  Excited state 4 (singlet, A)                                     [converged]
  Term symbol:  5 (1) A                                     R^2 =  1.44909e-13
  Excitation energy:                                               9.831845 eV
  Excited state 5 (singlet, A)                                     [converged]
  Term symbol:  6 (1) A                                     R^2 =  9.51755e-14
  Excitation energy:                                              10.209068 eV
  Excited state 6 (singlet, A)                                     [converged]
  Term symbol:  7 (1) A                                     R^2 =  3.35730e-13
  Excitation energy:                                              10.532940 eV
  Excited state 7 (singlet, A)                                     [converged]
  Term symbol:  8 (1) A                                     R^2 =  1.09326e-10
  Excitation energy:                                              11.554946 eV
  Excited state 8 (singlet, A)                                     [converged]
  Term symbol:  9 (1) A                                     R^2 =  5.14026e-11
  Excitation energy:                                              12.167755 eV
  Excited state 9 (singlet, A)                                     [converged]
  Term symbol:  10 (1) A                                    R^2 =  5.39342e-10
  Excitation energy:                                              12.419177 eV
  Excited state 10 (singlet, A)                                     [converged]
  Term symbol:  11 (1) A                                    R^2 =  6.44375e-07
  Excitation energy:                                              12.645371 eV
  Excitation energy:                                               0.319485 eV
  Excitation energy:                                               0.428957 eV
  Excitation energy:                                               0.109472 eV
  Excitation energy:                                               1.094329 eV
  Excitation energy:                                               0.774844 eV
  Excitation energy:                                               0.665371 eV
  Excitation energy:                                               1.471553 eV
  Excitation energy:                                               1.152067 eV
  Excitation energy:                                               1.042595 eV
  Excitation energy:                                               0.377224 eV
  Excitation energy:                                               1.795425 eV
  Excitation energy:                                               1.475939 eV
  Excitation energy:                                               1.366467 eV
  Excitation energy:                                               0.701096 eV
  Excitation energy:                                               0.323872 eV
  Excitation energy:                                               2.817431 eV
  Excitation energy:                                               2.497945 eV
  Excitation energy:                                               2.388473 eV
  Excitation energy:                                               1.723102 eV
  Excitation energy:                                               1.345878 eV
  Excitation energy:                                               1.022006 eV
  Excitation energy:                                               3.430239 eV
  Excitation energy:                                               3.110754 eV
  Excitation energy:                                               3.001282 eV
  Excitation energy:                                               2.335910 eV
  Excitation energy:                                               1.958687 eV
  Excitation energy:                                               1.634815 eV
  Excitation energy:                                               0.612809 eV
  Excitation energy:                                               3.681662 eV
  Excitation energy:                                               3.362177 eV
  Excitation energy:                                               3.252704 eV
  Excitation energy:                                               2.587333 eV
  Excitation energy:                                               2.210109 eV
  Excitation energy:                                               1.886237 eV
  Excitation energy:                                               0.864231 eV
  Excitation energy:                                               0.251422 eV
  Excitation energy:                                               3.907855 eV
  Excitation energy:                                               3.588370 eV
  Excitation energy:                                               3.478898 eV
  Excitation energy:                                               2.813526 eV
  Excitation energy:                                               2.436303 eV
  Excitation energy:                                               2.112431 eV
  Excitation energy:                                               1.090425 eV
  Excitation energy:                                               0.477616 eV
  Excitation energy:                                               0.226194 eV

                    Orbital Energies (a.u.)
 --------------------------------------------------------------

 Alpha MOs
 -- Occupied --
-11.2351 -11.2335  -1.0323  -0.7895  -0.6413  -0.5816  -0.5047  -0.3740

          Ground-State Mulliken Net Atomic Charges

     Atom                 Charge (a.u.)
  ----------------------------------------
      1 H                     0.048065
      2 C                    -0.095192
      3 H                     0.047553
      4 C                    -0.095815
      5 H                     0.047485
      6 H                     0.047904
  ----------------------------------------
  Sum of atomic charges =     0.000000

                    Cartesian Multipole Moments
 -----------------------------------------------------------------
    Charge (ESU x 10^10)
                -0.0000
    Dipole Moment (Debye)
         X      -0.0008      Y       0.0005      Z       0.0010
       Tot       0.0014
    Quadrupole Moments (Debye-Ang)
        XX     -12.2137     XY      -0.0474     YY     -12.2744
        XZ       0.1538     YZ       0.1932     ZZ     -15.5427

 Total job time:  122.59s(wall), 397.49s(cpu)
        *  Thank you very much for using Q-Chem.  Have a nice day.  *
