 Q-Chem 5.4 (devel), Q-Chem, Inc., Pleasanton, CA (2021)
 Q-Chem 5.4.1 for Intel X86 EM64T Linux

User input:
--------------------------------------------------------------
$comment
generated from CCJob.Templates
$end

$rem
sym_ignore = true
method = adc(2)
ee_states = 10
basis = cc-pVDZ
mem_static = 1024
mem_total = 30000
adc_davidson_maxiter = 900
adc_davidson_conv = 6
adc_print = 3
adc_prop_es = true
adc_prop_es2es = true
adc_prop_tpa = true
molden_format = True
state_analysis = true
print_orbitals = 15
gen_scfman = false
fde_export_density = true
fde_details = 3
$end

$molecule
0 1
H -0.0348278765 -0.2442097827 0.0636489606
C -1.0765972949 -0.5242748755 -0.0023551776
H -1.313264467 -1.5767591607 -0.0757276926
C -2.043634118 0.3926884087 0.0061254933
H -1.8137616575 1.4509188337999999 0.0804456828
H -3.085977293 0.114931858 -0.0593381042
$end
--------------------------------------------------------------

             Standard Nuclear Orientation (Angstroms)
    I     Atom           X                Y                Z
 ----------------------------------------------------------------
    1      H      -0.0348278765    -0.2442097827     0.0636489606
    2      C      -1.0765972949    -0.5242748755    -0.0023551776
    3      H      -1.3132644670    -1.5767591607    -0.0757276926
    4      C      -2.0436341180     0.3926884087     0.0061254933
    5      H      -1.8137616575     1.4509188338     0.0804456828
    6      H      -3.0859772930     0.1149318580    -0.0593381042
 ----------------------------------------------------------------

   11     -78.0399348444      6.81E-09 Convergence criterion met
 Total energy in the final basis set = -78.03993484
  Excited state 1 (singlet, A)                                     [converged]
  Term symbol:  2 (1) A                                     R^2 =  6.21573e-13
  Excitation energy:                                               8.737387 eV
  Excited state 2 (singlet, A)                                     [converged]
  Term symbol:  3 (1) A                                     R^2 =  3.87510e-13
  Excitation energy:                                               9.047004 eV
  Excited state 3 (singlet, A)                                     [converged]
  Term symbol:  4 (1) A                                     R^2 =  5.09598e-13
  Excitation energy:                                               9.166941 eV
  Excited state 4 (singlet, A)                                     [converged]
  Term symbol:  5 (1) A                                     R^2 =  4.56862e-13
  Excitation energy:                                               9.825307 eV
  Excited state 5 (singlet, A)                                     [converged]
  Term symbol:  6 (1) A                                     R^2 =  4.49503e-13
  Excitation energy:                                              10.207858 eV
  Excited state 6 (singlet, A)                                     [converged]
  Term symbol:  7 (1) A                                     R^2 =  3.50417e-13
  Excitation energy:                                              10.533143 eV
  Excited state 7 (singlet, A)                                     [converged]
  Term symbol:  8 (1) A                                     R^2 =  5.62470e-11
  Excitation energy:                                              11.545592 eV
  Excited state 8 (singlet, A)                                     [converged]
  Term symbol:  9 (1) A                                     R^2 =  2.77611e-11
  Excitation energy:                                              12.159425 eV
  Excited state 9 (singlet, A)                                     [converged]
  Term symbol:  10 (1) A                                    R^2 =  5.61274e-10
  Excitation energy:                                              12.411939 eV
  Excited state 10 (singlet, A)                                     [converged]
  Term symbol:  11 (1) A                                    R^2 =  8.96538e-07
  Excitation energy:                                              12.631366 eV
  Excitation energy:                                               0.309617 eV
  Excitation energy:                                               0.429554 eV
  Excitation energy:                                               0.119937 eV
  Excitation energy:                                               1.087919 eV
  Excitation energy:                                               0.778303 eV
  Excitation energy:                                               0.658365 eV
  Excitation energy:                                               1.470471 eV
  Excitation energy:                                               1.160854 eV
  Excitation energy:                                               1.040917 eV
  Excitation energy:                                               0.382551 eV
  Excitation energy:                                               1.795756 eV
  Excitation energy:                                               1.486139 eV
  Excitation energy:                                               1.366202 eV
  Excitation energy:                                               0.707837 eV
  Excitation energy:                                               0.325285 eV
  Excitation energy:                                               2.808205 eV
  Excitation energy:                                               2.498588 eV
  Excitation energy:                                               2.378651 eV
  Excitation energy:                                               1.720286 eV
  Excitation energy:                                               1.337734 eV
  Excitation energy:                                               1.012449 eV
  Excitation energy:                                               3.422038 eV
  Excitation energy:                                               3.112422 eV
  Excitation energy:                                               2.992484 eV
  Excitation energy:                                               2.334119 eV
  Excitation energy:                                               1.951567 eV
  Excitation energy:                                               1.626282 eV
  Excitation energy:                                               0.613833 eV
  Excitation energy:                                               3.674552 eV
  Excitation energy:                                               3.364935 eV
  Excitation energy:                                               3.244998 eV
  Excitation energy:                                               2.586633 eV
  Excitation energy:                                               2.204081 eV
  Excitation energy:                                               1.878796 eV
  Excitation energy:                                               0.866347 eV
  Excitation energy:                                               0.252514 eV
  Excitation energy:                                               3.893979 eV
  Excitation energy:                                               3.584362 eV
  Excitation energy:                                               3.464425 eV
  Excitation energy:                                               2.806060 eV
  Excitation energy:                                               2.423508 eV
  Excitation energy:                                               2.098223 eV
  Excitation energy:                                               1.085774 eV
  Excitation energy:                                               0.471941 eV
  Excitation energy:                                               0.219427 eV

                    Orbital Energies (a.u.)
 --------------------------------------------------------------

 Alpha MOs
 -- Occupied --
-11.2354 -11.2337  -1.0321  -0.7893  -0.6407  -0.5818  -0.5042  -0.3740

          Ground-State Mulliken Net Atomic Charges

     Atom                 Charge (a.u.)
  ----------------------------------------
      1 H                     0.048195
      2 C                    -0.094329
      3 H                     0.047750
      4 C                    -0.098007
      5 H                     0.048557
      6 H                     0.047834
  ----------------------------------------
  Sum of atomic charges =     0.000000

                    Cartesian Multipole Moments
 -----------------------------------------------------------------
    Charge (ESU x 10^10)
                -0.0000
    Dipole Moment (Debye)
         X      -0.0021      Y      -0.0006      Z       0.0008
       Tot       0.0023
    Quadrupole Moments (Debye-Ang)
        XX     -12.2150     XY      -0.0552     YY     -12.2684
        XZ       0.1534     YZ       0.1933     ZZ     -15.5472

 Total job time:  148.68s(wall), 520.74s(cpu)
        *  Thank you very much for using Q-Chem.  Have a nice day.  *
