 Q-Chem 5.4 (devel), Q-Chem, Inc., Pleasanton, CA (2021)
 Q-Chem 5.4.1 for Intel X86 EM64T Linux

User input:
--------------------------------------------------------------
$comment
generated from CCJob.Templates
$end

$rem
sym_ignore = true
method = adc(2)
ee_states = 10
basis = cc-pVDZ
mem_static = 1024
mem_total = 30000
adc_davidson_maxiter = 900
adc_davidson_conv = 6
adc_print = 3
adc_prop_es = true
adc_prop_es2es = true
adc_prop_tpa = true
molden_format = True
state_analysis = true
print_orbitals = 15
gen_scfman = false
fde_export_density = true
fde_details = 3
$end

$molecule
0 1
H -0.0348278765 -0.23920978269999998 0.0636489606
C -1.0765972949 -0.5242748755 -0.0023551776
H -1.313264467 -1.5767591607 -0.0757276926
C -2.043634118 0.3926884087 0.0061254933
H -1.8137616575 1.4459188338 0.0804456828
H -3.085977293 0.114931858 -0.0593381042
$end
--------------------------------------------------------------

             Standard Nuclear Orientation (Angstroms)
    I     Atom           X                Y                Z
 ----------------------------------------------------------------
    1      H      -0.0348278765    -0.2392097827     0.0636489606
    2      C      -1.0765972949    -0.5242748755    -0.0023551776
    3      H      -1.3132644670    -1.5767591607    -0.0757276926
    4      C      -2.0436341180     0.3926884087     0.0061254933
    5      H      -1.8137616575     1.4459188338     0.0804456828
    6      H      -3.0859772930     0.1149318580    -0.0593381042
 ----------------------------------------------------------------

   11     -78.0399188445      4.79E-09 Convergence criterion met
 Total energy in the final basis set = -78.03991884
  Excited state 1 (singlet, A)                                     [converged]
  Term symbol:  2 (1) A                                     R^2 =  3.29229e-14
  Excitation energy:                                               8.737514 eV
  Excited state 2 (singlet, A)                                     [converged]
  Term symbol:  3 (1) A                                     R^2 =  8.07689e-14
  Excitation energy:                                               9.057010 eV
  Excited state 3 (singlet, A)                                     [converged]
  Term symbol:  4 (1) A                                     R^2 =  5.90210e-14
  Excitation energy:                                               9.166219 eV
  Excited state 4 (singlet, A)                                     [converged]
  Term symbol:  5 (1) A                                     R^2 =  3.75947e-13
  Excitation energy:                                               9.831525 eV
  Excited state 5 (singlet, A)                                     [converged]
  Term symbol:  6 (1) A                                     R^2 =  2.84446e-13
  Excitation energy:                                              10.208564 eV
  Excited state 6 (singlet, A)                                     [converged]
  Term symbol:  7 (1) A                                     R^2 =  5.49913e-13
  Excitation energy:                                              10.532561 eV
  Excited state 7 (singlet, A)                                     [converged]
  Term symbol:  8 (1) A                                     R^2 =  1.69060e-10
  Excitation energy:                                              11.554575 eV
  Excited state 8 (singlet, A)                                     [converged]
  Term symbol:  9 (1) A                                     R^2 =  2.23434e-10
  Excitation energy:                                              12.167539 eV
  Excited state 9 (singlet, A)                                     [converged]
  Term symbol:  10 (1) A                                    R^2 =  2.02759e-09
  Excitation energy:                                              12.418992 eV
  Excited state 10 (singlet, A)                                     [converged]
  Term symbol:  11 (1) A                                    R^2 =  7.61931e-07
  Excitation energy:                                              12.644929 eV
  Excitation energy:                                               0.319496 eV
  Excitation energy:                                               0.428704 eV
  Excitation energy:                                               0.109209 eV
  Excitation energy:                                               1.094011 eV
  Excitation energy:                                               0.774515 eV
  Excitation energy:                                               0.665306 eV
  Excitation energy:                                               1.471050 eV
  Excitation energy:                                               1.151554 eV
  Excitation energy:                                               1.042346 eV
  Excitation energy:                                               0.377040 eV
  Excitation energy:                                               1.795047 eV
  Excitation energy:                                               1.475551 eV
  Excitation energy:                                               1.366342 eV
  Excitation energy:                                               0.701036 eV
  Excitation energy:                                               0.323997 eV
  Excitation energy:                                               2.817061 eV
  Excitation energy:                                               2.497565 eV
  Excitation energy:                                               2.388356 eV
  Excitation energy:                                               1.723050 eV
  Excitation energy:                                               1.346010 eV
  Excitation energy:                                               1.022014 eV
  Excitation energy:                                               3.430025 eV
  Excitation energy:                                               3.110529 eV
  Excitation energy:                                               3.001320 eV
  Excitation energy:                                               2.336014 eV
  Excitation energy:                                               1.958974 eV
  Excitation energy:                                               1.634978 eV
  Excitation energy:                                               0.612964 eV
  Excitation energy:                                               3.681478 eV
  Excitation energy:                                               3.361983 eV
  Excitation energy:                                               3.252774 eV
  Excitation energy:                                               2.587468 eV
  Excitation energy:                                               2.210428 eV
  Excitation energy:                                               1.886431 eV
  Excitation energy:                                               0.864418 eV
  Excitation energy:                                               0.251454 eV
  Excitation energy:                                               3.907415 eV
  Excitation energy:                                               3.587919 eV
  Excitation energy:                                               3.478711 eV
  Excitation energy:                                               2.813405 eV
  Excitation energy:                                               2.436365 eV
  Excitation energy:                                               2.112368 eV
  Excitation energy:                                               1.090355 eV
  Excitation energy:                                               0.477391 eV
  Excitation energy:                                               0.225937 eV

                    Orbital Energies (a.u.)
 --------------------------------------------------------------

 Alpha MOs
 -- Occupied --
-11.2351 -11.2335  -1.0323  -0.7895  -0.6413  -0.5816  -0.5047  -0.3740

          Ground-State Mulliken Net Atomic Charges

     Atom                 Charge (a.u.)
  ----------------------------------------
      1 H                     0.048482
      2 C                    -0.095561
      3 H                     0.047905
      4 C                    -0.095528
      5 H                     0.047139
      6 H                     0.047562
  ----------------------------------------
  Sum of atomic charges =     0.000000

                    Cartesian Multipole Moments
 -----------------------------------------------------------------
    Charge (ESU x 10^10)
                -0.0000
    Dipole Moment (Debye)
         X      -0.0032      Y       0.0026      Z       0.0010
       Tot       0.0042
    Quadrupole Moments (Debye-Ang)
        XX     -12.2163     XY      -0.0510     YY     -12.2649
        XZ       0.1529     YZ       0.1941     ZZ     -15.5430

 Total job time:  96.03s(wall), 322.85s(cpu)
        *  Thank you very much for using Q-Chem.  Have a nice day.  *
