 Q-Chem 5.4 (devel), Q-Chem, Inc., Pleasanton, CA (2021)
 Q-Chem 5.4.1 for Intel X86 EM64T Linux

User input:
--------------------------------------------------------------
$comment
generated from CCJob.Templates
$end

$rem
sym_ignore = true
method = adc(2)
ee_states = 10
basis = cc-pVDZ
mem_static = 1024
mem_total = 40000
adc_davidson_maxiter = 900
adc_davidson_conv = 6
adc_print = 3
adc_prop_es = true
adc_prop_es2es = true
adc_prop_tpa = true
molden_format = True
state_analysis = true
print_orbitals = 15
gen_scfman = false
fde_export_density = true
fde_details = 3
$end

$molecule
0 1
H -0.05906740472820177 -0.25778362276861444 0.06267106601159529
C -1.0696188292027988 -0.5323194530107392 -0.002439260377908974
H -1.2922991032797588 -1.5549698832316046 -0.07497705928781281
C -2.036459643205001 0.38593552069120796 0.0065331599222532896
H -1.8126003304810339 1.500573830261441 0.08464236321195538
H -3.138679624221062 0.1055982385333327 -0.06325614728872923
$end
--------------------------------------------------------------

             Standard Nuclear Orientation (Angstroms)
    I     Atom           X                Y                Z
 ----------------------------------------------------------------
    1      H      -0.0590674047    -0.2577836228     0.0626710660
    2      C      -1.0696188292    -0.5323194530    -0.0024392604
    3      H      -1.2922991033    -1.5549698832    -0.0749770593
    4      C      -2.0364596432     0.3859355207     0.0065331599
    5      H      -1.8126003305     1.5005738303     0.0846423632
    6      H      -3.1386796242     0.1055982385    -0.0632561473
 ----------------------------------------------------------------

   11     -78.0342105185      5.60E-09 Convergence criterion met
 Total energy in the final basis set = -78.03421052
  Excited state 1 (singlet, A)                                     [converged]
  Term symbol:  2 (1) A                                     R^2 =  4.92492e-13
  Excitation energy:                                               8.733712 eV
  Excited state 2 (singlet, A)                                     [converged]
  Term symbol:  3 (1) A                                     R^2 =  7.76012e-13
  Excitation energy:                                               8.931483 eV
  Excited state 3 (singlet, A)                                     [converged]
  Term symbol:  4 (1) A                                     R^2 =  1.06314e-12
  Excitation energy:                                               9.098517 eV
  Excited state 4 (singlet, A)                                     [converged]
  Term symbol:  5 (1) A                                     R^2 =  2.24313e-13
  Excitation energy:                                               9.720447 eV
  Excited state 5 (singlet, A)                                     [converged]
  Term symbol:  6 (1) A                                     R^2 =  5.81464e-13
  Excitation energy:                                              10.171506 eV
  Excited state 6 (singlet, A)                                     [converged]
  Term symbol:  7 (1) A                                     R^2 =  5.02629e-13
  Excitation energy:                                              10.517923 eV
  Excited state 7 (singlet, A)                                     [converged]
  Term symbol:  8 (1) A                                     R^2 =  8.15069e-09
  Excitation energy:                                              11.370538 eV
  Excited state 8 (singlet, A)                                     [converged]
  Term symbol:  9 (1) A                                     R^2 =  4.54245e-09
  Excitation energy:                                              12.091734 eV
  Excited state 9 (singlet, A)                                     [converged]
  Term symbol:  10 (1) A                                    R^2 =  5.56789e-08
  Excitation energy:                                              12.352712 eV
  Excited state 10 (singlet, A)                                     [converged]
  Term symbol:  11 (1) A                                    R^2 =  9.65351e-07
  Excitation energy:                                              12.451897 eV
  Excitation energy:                                               0.197771 eV
  Excitation energy:                                               0.364805 eV
  Excitation energy:                                               0.167034 eV
  Excitation energy:                                               0.986734 eV
  Excitation energy:                                               0.788964 eV
  Excitation energy:                                               0.621929 eV
  Excitation energy:                                               1.437794 eV
  Excitation energy:                                               1.240023 eV
  Excitation energy:                                               1.072989 eV
  Excitation energy:                                               0.451059 eV
  Excitation energy:                                               1.784211 eV
  Excitation energy:                                               1.586440 eV
  Excitation energy:                                               1.419405 eV
  Excitation energy:                                               0.797476 eV
  Excitation energy:                                               0.346417 eV
  Excitation energy:                                               2.636826 eV
  Excitation energy:                                               2.439055 eV
  Excitation energy:                                               2.272021 eV
  Excitation energy:                                               1.650091 eV
  Excitation energy:                                               1.199032 eV
  Excitation energy:                                               0.852615 eV
  Excitation energy:                                               3.358022 eV
  Excitation energy:                                               3.160251 eV
  Excitation energy:                                               2.993217 eV
  Excitation energy:                                               2.371288 eV
  Excitation energy:                                               1.920228 eV
  Excitation energy:                                               1.573812 eV
  Excitation energy:                                               0.721197 eV
  Excitation energy:                                               3.619000 eV
  Excitation energy:                                               3.421229 eV
  Excitation energy:                                               3.254195 eV
  Excitation energy:                                               2.632265 eV
  Excitation energy:                                               2.181206 eV
  Excitation energy:                                               1.834789 eV
  Excitation energy:                                               0.982174 eV
  Excitation energy:                                               0.260978 eV
  Excitation energy:                                               3.718184 eV
  Excitation energy:                                               3.520414 eV
  Excitation energy:                                               3.353379 eV
  Excitation energy:                                               2.731450 eV
  Excitation energy:                                               2.280391 eV
  Excitation energy:                                               1.933974 eV
  Excitation energy:                                               1.081359 eV
  Excitation energy:                                               0.360162 eV
  Excitation energy:                                               0.099185 eV

                    Orbital Energies (a.u.)
 --------------------------------------------------------------

 Alpha MOs
 -- Occupied --
-11.2470 -11.2291  -1.0311  -0.7862  -0.6377  -0.5817  -0.4979  -0.3746

          Ground-State Mulliken Net Atomic Charges

     Atom                 Charge (a.u.)
  ----------------------------------------
      1 H                     0.038703
      2 C                    -0.042459
      3 H                     0.038682
      4 C                    -0.160672
      5 H                     0.062884
      6 H                     0.062862
  ----------------------------------------
  Sum of atomic charges =     0.000000

                    Cartesian Multipole Moments
 -----------------------------------------------------------------
    Charge (ESU x 10^10)
                -0.0000
    Dipole Moment (Debye)
         X       0.0386      Y      -0.0368      Z      -0.0003
       Tot       0.0533
    Quadrupole Moments (Debye-Ang)
        XX     -12.3673     XY      -0.0501     YY     -12.2560
        XZ       0.1566     YZ       0.1984     ZZ     -15.6081

 Total job time:  140.92s(wall), 438.13s(cpu)
        *  Thank you very much for using Q-Chem.  Have a nice day.  *
