 Q-Chem 5.4 (devel), Q-Chem, Inc., Pleasanton, CA (2021)
 Q-Chem 5.4.1 for Intel X86 EM64T Linux

User input:
--------------------------------------------------------------
$comment
generated from CCJob.Templates
$end

$rem
sym_ignore = true
method = adc(2)
ee_states = 10
basis = cc-pVDZ
mem_static = 1024
mem_total = 30000
adc_davidson_maxiter = 900
adc_davidson_conv = 6
adc_print = 3
adc_prop_es = true
adc_prop_es2es = true
adc_prop_tpa = true
molden_format = True
state_analysis = true
print_orbitals = 15
gen_scfman = false
fde_export_density = true
fde_details = 3
$end

$molecule
0 1
H -0.0348278765 -0.2442097827 0.0636489606
C -1.0765972949 -0.5242748755 -0.0023551776
H -1.313264467 -1.5767591607 -0.0757276926
C -2.043634118 0.3926884087 0.0011254932999999996
H -1.8137616575 1.4459188338 0.0804456828
H -3.085977293 0.114931858 -0.0593381042
$end
--------------------------------------------------------------

             Standard Nuclear Orientation (Angstroms)
    I     Atom           X                Y                Z
 ----------------------------------------------------------------
    1      H      -0.0348278765    -0.2442097827     0.0636489606
    2      C      -1.0765972949    -0.5242748755    -0.0023551776
    3      H      -1.3132644670    -1.5767591607    -0.0757276926
    4      C      -2.0436341180     0.3926884087     0.0011254933
    5      H      -1.8137616575     1.4459188338     0.0804456828
    6      H      -3.0859772930     0.1149318580    -0.0593381042
 ----------------------------------------------------------------

   11     -78.0399202079      2.73E-09 Convergence criterion met
 Total energy in the final basis set = -78.03992021
  Excited state 1 (singlet, A)                                     [converged]
  Term symbol:  2 (1) A                                     R^2 =  1.05497e-13
  Excitation energy:                                               8.737181 eV
  Excited state 2 (singlet, A)                                     [converged]
  Term symbol:  3 (1) A                                     R^2 =  2.49919e-13
  Excitation energy:                                               9.054038 eV
  Excited state 3 (singlet, A)                                     [converged]
  Term symbol:  4 (1) A                                     R^2 =  2.10576e-13
  Excitation energy:                                               9.170913 eV
  Excited state 4 (singlet, A)                                     [converged]
  Term symbol:  5 (1) A                                     R^2 =  1.81026e-13
  Excitation energy:                                               9.833339 eV
  Excited state 5 (singlet, A)                                     [converged]
  Term symbol:  6 (1) A                                     R^2 =  2.95593e-13
  Excitation energy:                                              10.212237 eV
  Excited state 6 (singlet, A)                                     [converged]
  Term symbol:  7 (1) A                                     R^2 =  2.65987e-13
  Excitation energy:                                              10.535932 eV
  Excited state 7 (singlet, A)                                     [converged]
  Term symbol:  8 (1) A                                     R^2 =  1.62195e-09
  Excitation energy:                                              11.556521 eV
  Excited state 8 (singlet, A)                                     [converged]
  Term symbol:  9 (1) A                                     R^2 =  9.84883e-10
  Excitation energy:                                              12.165359 eV
  Excited state 9 (singlet, A)                                     [converged]
  Term symbol:  10 (1) A                                    R^2 =  1.11427e-08
  Excitation energy:                                              12.417116 eV
  Excited state 10 (singlet, A)                                     [converged]
  Term symbol:  11 (1) A                                    R^2 =  6.32404e-07
  Excitation energy:                                              12.645302 eV
  Excitation energy:                                               0.316857 eV
  Excitation energy:                                               0.433732 eV
  Excitation energy:                                               0.116875 eV
  Excitation energy:                                               1.096158 eV
  Excitation energy:                                               0.779301 eV
  Excitation energy:                                               0.662427 eV
  Excitation energy:                                               1.475056 eV
  Excitation energy:                                               1.158199 eV
  Excitation energy:                                               1.041324 eV
  Excitation energy:                                               0.378898 eV
  Excitation energy:                                               1.798751 eV
  Excitation energy:                                               1.481894 eV
  Excitation energy:                                               1.365019 eV
  Excitation energy:                                               0.702593 eV
  Excitation energy:                                               0.323695 eV
  Excitation energy:                                               2.819340 eV
  Excitation energy:                                               2.502483 eV
  Excitation energy:                                               2.385608 eV
  Excitation energy:                                               1.723182 eV
  Excitation energy:                                               1.344284 eV
  Excitation energy:                                               1.020589 eV
  Excitation energy:                                               3.428178 eV
  Excitation energy:                                               3.111321 eV
  Excitation energy:                                               2.994446 eV
  Excitation energy:                                               2.332020 eV
  Excitation energy:                                               1.953122 eV
  Excitation energy:                                               1.629427 eV
  Excitation energy:                                               0.608838 eV
  Excitation energy:                                               3.679935 eV
  Excitation energy:                                               3.363078 eV
  Excitation energy:                                               3.246203 eV
  Excitation energy:                                               2.583777 eV
  Excitation energy:                                               2.204879 eV
  Excitation energy:                                               1.881184 eV
  Excitation energy:                                               0.860595 eV
  Excitation energy:                                               0.251757 eV
  Excitation energy:                                               3.908121 eV
  Excitation energy:                                               3.591264 eV
  Excitation energy:                                               3.474389 eV
  Excitation energy:                                               2.811963 eV
  Excitation energy:                                               2.433065 eV
  Excitation energy:                                               2.109370 eV
  Excitation energy:                                               1.088781 eV
  Excitation energy:                                               0.479943 eV
  Excitation energy:                                               0.228186 eV

                    Orbital Energies (a.u.)
 --------------------------------------------------------------

 Alpha MOs
 -- Occupied --
-11.2351 -11.2334  -1.0323  -0.7898  -0.6411  -0.5819  -0.5046  -0.3740

          Ground-State Mulliken Net Atomic Charges

     Atom                 Charge (a.u.)
  ----------------------------------------
      1 H                     0.048140
      2 C                    -0.095104
      3 H                     0.047643
      4 C                    -0.095549
      5 H                     0.047253
      6 H                     0.047617
  ----------------------------------------
  Sum of atomic charges =     0.000000

                    Cartesian Multipole Moments
 -----------------------------------------------------------------
    Charge (ESU x 10^10)
                -0.0000
    Dipole Moment (Debye)
         X      -0.0022      Y       0.0011      Z       0.0081
       Tot       0.0085
    Quadrupole Moments (Debye-Ang)
        XX     -12.2102     XY      -0.0575     YY     -12.2702
        XZ       0.1389     YZ       0.1957     ZZ     -15.5410

 Total job time:  86.14s(wall), 284.83s(cpu)
        *  Thank you very much for using Q-Chem.  Have a nice day.  *
