 Q-Chem 5.4 (devel), Q-Chem, Inc., Pleasanton, CA (2021)
 Q-Chem 5.4.1 for Intel X86 EM64T Linux

User input:
--------------------------------------------------------------
$comment
generated from CCJob.Templates
$end

$rem
sym_ignore = true
method = adc(2)
ee_states = 10
basis = cc-pVDZ
mem_static = 1024
mem_total = 40000
adc_davidson_maxiter = 900
adc_davidson_conv = 6
adc_print = 3
adc_prop_es = true
adc_prop_es2es = true
adc_prop_tpa = true
molden_format = True
state_analysis = true
print_orbitals = 15
gen_scfman = false
fde_export_density = true
fde_details = 3
$end

$molecule
0 1
H -0.019835495606187713 -0.24849074589452586 0.045985065369207316
C -1.072302666820278 -0.5282639352860979 -0.06943782015749107
H -1.2992483007070648 -1.593175152199518 -0.1120252183758825
C -2.0408133208142685 0.3876764784222946 -0.002017880068806044
H -1.8206929679029464 1.459710001310007 0.09431340395520135
H -3.100076595103825 0.11502351540501976 -0.06359830798988787
$end
--------------------------------------------------------------

             Standard Nuclear Orientation (Angstroms)
    I     Atom           X                Y                Z
 ----------------------------------------------------------------
    1      H      -0.0198354956    -0.2484907459     0.0459850654
    2      C      -1.0723026668    -0.5282639353    -0.0694378202
    3      H      -1.2992483007    -1.5931751522    -0.1120252184
    4      C      -2.0408133208     0.3876764784    -0.0020178801
    5      H      -1.8206929679     1.4597100013     0.0943134040
    6      H      -3.1000765951     0.1150235154    -0.0635983080
 ----------------------------------------------------------------

   11     -78.0390742135      7.98E-09 Convergence criterion met
 Total energy in the final basis set = -78.03907421
  Excited state 1 (singlet, A)                                     [converged]
  Term symbol:  2 (1) A                                     R^2 =  2.38451e-13
  Excitation energy:                                               8.709846 eV
  Excited state 2 (singlet, A)                                     [converged]
  Term symbol:  3 (1) A                                     R^2 =  3.10895e-13
  Excitation energy:                                               8.930393 eV
  Excited state 3 (singlet, A)                                     [converged]
  Term symbol:  4 (1) A                                     R^2 =  3.51574e-13
  Excitation energy:                                               9.139430 eV
  Excited state 4 (singlet, A)                                     [converged]
  Term symbol:  5 (1) A                                     R^2 =  3.94112e-13
  Excitation energy:                                               9.735418 eV
  Excited state 5 (singlet, A)                                     [converged]
  Term symbol:  6 (1) A                                     R^2 =  1.29849e-13
  Excitation energy:                                              10.147159 eV
  Excited state 6 (singlet, A)                                     [converged]
  Term symbol:  7 (1) A                                     R^2 =  5.42739e-13
  Excitation energy:                                              10.500727 eV
  Excited state 7 (singlet, A)                                     [converged]
  Term symbol:  8 (1) A                                     R^2 =  1.62403e-10
  Excitation energy:                                              11.427644 eV
  Excited state 8 (singlet, A)                                     [converged]
  Term symbol:  9 (1) A                                     R^2 =  5.07404e-08
  Excitation energy:                                              12.047052 eV
  Excited state 9 (singlet, A)                                     [converged]
  Term symbol:  10 (1) A                                    R^2 =  6.26639e-07
  Excitation energy:                                              12.334125 eV
  Excited state 10 (singlet, A)                                     [converged]
  Term symbol:  11 (1) A                                    R^2 =  4.45488e-07
  Excitation energy:                                              12.472996 eV
  Excitation energy:                                               0.220546 eV
  Excitation energy:                                               0.429584 eV
  Excitation energy:                                               0.209038 eV
  Excitation energy:                                               1.025572 eV
  Excitation energy:                                               0.805026 eV
  Excitation energy:                                               0.595988 eV
  Excitation energy:                                               1.437313 eV
  Excitation energy:                                               1.216767 eV
  Excitation energy:                                               1.007729 eV
  Excitation energy:                                               0.411741 eV
  Excitation energy:                                               1.790881 eV
  Excitation energy:                                               1.570335 eV
  Excitation energy:                                               1.361297 eV
  Excitation energy:                                               0.765309 eV
  Excitation energy:                                               0.353568 eV
  Excitation energy:                                               2.717797 eV
  Excitation energy:                                               2.497251 eV
  Excitation energy:                                               2.288213 eV
  Excitation energy:                                               1.692225 eV
  Excitation energy:                                               1.280484 eV
  Excitation energy:                                               0.926917 eV
  Excitation energy:                                               3.337206 eV
  Excitation energy:                                               3.116660 eV
  Excitation energy:                                               2.907622 eV
  Excitation energy:                                               2.311634 eV
  Excitation energy:                                               1.899893 eV
  Excitation energy:                                               1.546325 eV
  Excitation energy:                                               0.619408 eV
  Excitation energy:                                               3.624279 eV
  Excitation energy:                                               3.403733 eV
  Excitation energy:                                               3.194695 eV
  Excitation energy:                                               2.598707 eV
  Excitation energy:                                               2.186966 eV
  Excitation energy:                                               1.833398 eV
  Excitation energy:                                               0.906481 eV
  Excitation energy:                                               0.287073 eV
  Excitation energy:                                               3.763149 eV
  Excitation energy:                                               3.542603 eV
  Excitation energy:                                               3.333566 eV
  Excitation energy:                                               2.737578 eV
  Excitation energy:                                               2.325837 eV
  Excitation energy:                                               1.972269 eV
  Excitation energy:                                               1.045352 eV
  Excitation energy:                                               0.425944 eV
  Excitation energy:                                               0.138871 eV

                    Orbital Energies (a.u.)
 --------------------------------------------------------------

 Alpha MOs
 -- Occupied --
-11.2394 -11.2373  -1.0296  -0.7858  -0.6348  -0.5819  -0.4994  -0.3742

          Ground-State Mulliken Net Atomic Charges

     Atom                 Charge (a.u.)
  ----------------------------------------
      1 H                     0.052842
      2 C                    -0.102393
      3 H                     0.051926
      4 C                    -0.108422
      5 H                     0.053408
      6 H                     0.052640
  ----------------------------------------
  Sum of atomic charges =     0.000000

                    Cartesian Multipole Moments
 -----------------------------------------------------------------
    Charge (ESU x 10^10)
                -0.0000
    Dipole Moment (Debye)
         X      -0.0119      Y      -0.0018      Z       0.0741
       Tot       0.0751
    Quadrupole Moments (Debye-Ang)
        XX     -12.2235     XY      -0.1034     YY     -12.2615
        XZ       0.0534     YZ       0.2186     ZZ     -15.6127

 Total job time:  161.23s(wall), 431.78s(cpu)
        *  Thank you very much for using Q-Chem.  Have a nice day.  *
