 Q-Chem 5.4 (devel), Q-Chem, Inc., Pleasanton, CA (2021)
 Q-Chem 5.4.1 for Intel X86 EM64T Linux

User input:
--------------------------------------------------------------
$comment
generated from CCJob.Templates
$end

$rem
sym_ignore = true
method = adc(2)
ee_states = 10
basis = cc-pVDZ
mem_static = 1024
mem_total = 40000
adc_davidson_maxiter = 900
adc_davidson_conv = 6
adc_print = 3
adc_prop_es = true
adc_prop_es2es = true
adc_prop_tpa = true
molden_format = True
state_analysis = true
print_orbitals = 15
gen_scfman = false
fde_export_density = true
fde_details = 3
$end

$molecule
0 1
H -0.0348278765 -0.2442097827 0.0636489606
C -1.0765972949 -0.5242748755 -0.0023551776
H -1.313264467 -1.5767591607 -0.0757276926
C -2.043634118 0.3926884087 0.0061254933
H -1.8137616575 1.4359188338 0.0804456828
H -3.085977293 0.114931858 -0.0593381042
$end
--------------------------------------------------------------

             Standard Nuclear Orientation (Angstroms)
    I     Atom           X                Y                Z
 ----------------------------------------------------------------
    1      H      -0.0348278765    -0.2442097827     0.0636489606
    2      C      -1.0765972949    -0.5242748755    -0.0023551776
    3      H      -1.3132644670    -1.5767591607    -0.0757276926
    4      C      -2.0436341180     0.3926884087     0.0061254933
    5      H      -1.8137616575     1.4359188338     0.0804456828
    6      H      -3.0859772930     0.1149318580    -0.0593381042
 ----------------------------------------------------------------

   11     -78.0398083700      7.86E-09 Convergence criterion met
 Total energy in the final basis set = -78.03980837
  Excited state 1 (singlet, A)                                     [converged]
  Term symbol:  2 (1) A                                     R^2 =  7.69866e-14
  Excitation energy:                                               8.736643 eV
  Excited state 2 (singlet, A)                                     [converged]
  Term symbol:  3 (1) A                                     R^2 =  1.05703e-13
  Excitation energy:                                               9.068973 eV
  Excited state 3 (singlet, A)                                     [converged]
  Term symbol:  4 (1) A                                     R^2 =  7.00519e-14
  Excitation energy:                                               9.178053 eV
  Excited state 4 (singlet, A)                                     [converged]
  Term symbol:  5 (1) A                                     R^2 =  1.88607e-13
  Excitation energy:                                               9.848734 eV
  Excited state 5 (singlet, A)                                     [converged]
  Term symbol:  6 (1) A                                     R^2 =  1.41726e-13
  Excitation energy:                                              10.220795 eV
  Excited state 6 (singlet, A)                                     [converged]
  Term symbol:  7 (1) A                                     R^2 =  4.10528e-13
  Excitation energy:                                              10.541533 eV
  Excited state 7 (singlet, A)                                     [converged]
  Term symbol:  8 (1) A                                     R^2 =  1.50833e-10
  Excitation energy:                                              11.578994 eV
  Excited state 8 (singlet, A)                                     [converged]
  Term symbol:  9 (1) A                                     R^2 =  1.96826e-10
  Excitation energy:                                              12.177200 eV
  Excited state 9 (singlet, A)                                     [converged]
  Term symbol:  10 (1) A                                    R^2 =  1.85942e-09
  Excitation energy:                                              12.427708 eV
  Excited state 10 (singlet, A)                                     [converged]
  Term symbol:  11 (1) A                                    R^2 =  8.29341e-07
  Excitation energy:                                              12.673020 eV
  Excitation energy:                                               0.332330 eV
  Excitation energy:                                               0.441410 eV
  Excitation energy:                                               0.109080 eV
  Excitation energy:                                               1.112091 eV
  Excitation energy:                                               0.779761 eV
  Excitation energy:                                               0.670681 eV
  Excitation energy:                                               1.484152 eV
  Excitation energy:                                               1.151822 eV
  Excitation energy:                                               1.042742 eV
  Excitation energy:                                               0.372061 eV
  Excitation energy:                                               1.804890 eV
  Excitation energy:                                               1.472560 eV
  Excitation energy:                                               1.363480 eV
  Excitation energy:                                               0.692799 eV
  Excitation energy:                                               0.320738 eV
  Excitation energy:                                               2.842351 eV
  Excitation energy:                                               2.510021 eV
  Excitation energy:                                               2.400941 eV
  Excitation energy:                                               1.730260 eV
  Excitation energy:                                               1.358198 eV
  Excitation energy:                                               1.037461 eV
  Excitation energy:                                               3.440557 eV
  Excitation energy:                                               3.108227 eV
  Excitation energy:                                               2.999147 eV
  Excitation energy:                                               2.328466 eV
  Excitation energy:                                               1.956404 eV
  Excitation energy:                                               1.635667 eV
  Excitation energy:                                               0.598206 eV
  Excitation energy:                                               3.691064 eV
  Excitation energy:                                               3.358735 eV
  Excitation energy:                                               3.249655 eV
  Excitation energy:                                               2.578974 eV
  Excitation energy:                                               2.206912 eV
  Excitation energy:                                               1.886174 eV
  Excitation energy:                                               0.848714 eV
  Excitation energy:                                               0.250508 eV
  Excitation energy:                                               3.936377 eV
  Excitation energy:                                               3.604047 eV
  Excitation energy:                                               3.494967 eV
  Excitation energy:                                               2.824286 eV
  Excitation energy:                                               2.452225 eV
  Excitation energy:                                               2.131487 eV
  Excitation energy:                                               1.094026 eV
  Excitation energy:                                               0.495820 eV
  Excitation energy:                                               0.245313 eV

                    Orbital Energies (a.u.)
 --------------------------------------------------------------

 Alpha MOs
 -- Occupied --
-11.2347 -11.2327  -1.0327  -0.7907  -0.6420  -0.5821  -0.5054  -0.3739

          Ground-State Mulliken Net Atomic Charges

     Atom                 Charge (a.u.)
  ----------------------------------------
      1 H                     0.047976
      2 C                    -0.096743
      3 H                     0.047481
      4 C                    -0.090384
      5 H                     0.044340
      6 H                     0.047330
  ----------------------------------------
  Sum of atomic charges =     0.000000

                    Cartesian Multipole Moments
 -----------------------------------------------------------------
    Charge (ESU x 10^10)
                -0.0000
    Dipole Moment (Debye)
         X      -0.0012      Y       0.0061      Z       0.0019
       Tot       0.0065
    Quadrupole Moments (Debye-Ang)
        XX     -12.2098     XY      -0.0651     YY     -12.2676
        XZ       0.1513     YZ       0.1934     ZZ     -15.5288

 Total job time:  76.19s(wall), 196.60s(cpu)
        *  Thank you very much for using Q-Chem.  Have a nice day.  *
