 Q-Chem 5.4 (devel), Q-Chem, Inc., Pleasanton, CA (2021)
 Q-Chem 5.4.1 for Intel X86 EM64T Linux

User input:
--------------------------------------------------------------
$comment
generated from CCJob.Templates
$end

$rem
sym_ignore = true
method = adc(2)
ee_states = 10
basis = cc-pVDZ
mem_static = 1024
mem_total = 40000
adc_davidson_maxiter = 900
adc_davidson_conv = 6
adc_print = 3
adc_prop_es = true
adc_prop_es2es = true
adc_prop_tpa = true
molden_format = True
state_analysis = true
print_orbitals = 15
gen_scfman = false
fde_export_density = true
fde_details = 3
$end

$molecule
0 1
H -0.0348278765 -0.2442097827 0.0636489606
C -1.0765972949 -0.4842748755 -0.0023551776
H -1.313264467 -1.5767591607 -0.0757276926
C -2.043634118 0.3926884087 0.0061254933
H -1.8137616575 1.4459188338 0.0804456828
H -3.085977293 0.114931858 -0.0593381042
$end
--------------------------------------------------------------

             Standard Nuclear Orientation (Angstroms)
    I     Atom           X                Y                Z
 ----------------------------------------------------------------
    1      H      -0.0348278765    -0.2442097827     0.0636489606
    2      C      -1.0765972949    -0.4842748755    -0.0023551776
    3      H      -1.3132644670    -1.5767591607    -0.0757276926
    4      C      -2.0436341180     0.3926884087     0.0061254933
    5      H      -1.8137616575     1.4459188338     0.0804456828
    6      H      -3.0859772930     0.1149318580    -0.0593381042
 ----------------------------------------------------------------

   11     -78.0385204995      6.13E-09 Convergence criterion met
 Total energy in the final basis set = -78.03852050
  Excited state 1 (singlet, A)                                     [converged]
  Term symbol:  2 (1) A                                     R^2 =  4.85137e-13
  Excitation energy:                                               8.977918 eV
  Excited state 2 (singlet, A)                                     [converged]
  Term symbol:  3 (1) A                                     R^2 =  8.60832e-14
  Excitation energy:                                               9.005544 eV
  Excited state 3 (singlet, A)                                     [converged]
  Term symbol:  4 (1) A                                     R^2 =  3.92494e-13
  Excitation energy:                                               9.277430 eV
  Excited state 4 (singlet, A)                                     [converged]
  Term symbol:  5 (1) A                                     R^2 =  3.83658e-13
  Excitation energy:                                               9.849378 eV
  Excited state 5 (singlet, A)                                     [converged]
  Term symbol:  6 (1) A                                     R^2 =  1.70263e-13
  Excitation energy:                                              10.374944 eV
  Excited state 6 (singlet, A)                                     [converged]
  Term symbol:  7 (1) A                                     R^2 =  5.41206e-13
  Excitation energy:                                              10.800133 eV
  Excited state 7 (singlet, A)                                     [converged]
  Term symbol:  8 (1) A                                     R^2 =  5.07905e-11
  Excitation energy:                                              11.359503 eV
  Excited state 8 (singlet, A)                                     [converged]
  Term symbol:  9 (1) A                                     R^2 =  1.23450e-09
  Excitation energy:                                              12.307049 eV
  Excited state 9 (singlet, A)                                     [converged]
  Term symbol:  10 (1) A                                    R^2 =  6.18678e-07
  Excitation energy:                                              12.375903 eV
  Excited state 10 (singlet, A)                                     [converged]
  Term symbol:  11 (1) A                                    R^2 =  7.49156e-07
  Excitation energy:                                              12.559058 eV
  Excitation energy:                                               0.027626 eV
  Excitation energy:                                               0.299512 eV
  Excitation energy:                                               0.271886 eV
  Excitation energy:                                               0.871460 eV
  Excitation energy:                                               0.843833 eV
  Excitation energy:                                               0.571948 eV
  Excitation energy:                                               1.397026 eV
  Excitation energy:                                               1.369399 eV
  Excitation energy:                                               1.097514 eV
  Excitation energy:                                               0.525566 eV
  Excitation energy:                                               1.822215 eV
  Excitation energy:                                               1.794589 eV
  Excitation energy:                                               1.522703 eV
  Excitation energy:                                               0.950756 eV
  Excitation energy:                                               0.425189 eV
  Excitation energy:                                               2.381585 eV
  Excitation energy:                                               2.353959 eV
  Excitation energy:                                               2.082073 eV
  Excitation energy:                                               1.510126 eV
  Excitation energy:                                               0.984559 eV
  Excitation energy:                                               0.559370 eV
  Excitation energy:                                               3.329131 eV
  Excitation energy:                                               3.301504 eV
  Excitation energy:                                               3.029619 eV
  Excitation energy:                                               2.457671 eV
  Excitation energy:                                               1.932105 eV
  Excitation energy:                                               1.506915 eV
  Excitation energy:                                               0.947545 eV
  Excitation energy:                                               3.397985 eV
  Excitation energy:                                               3.370359 eV
  Excitation energy:                                               3.098473 eV
  Excitation energy:                                               2.526526 eV
  Excitation energy:                                               2.000959 eV
  Excitation energy:                                               1.575770 eV
  Excitation energy:                                               1.016400 eV
  Excitation energy:                                               0.068855 eV
  Excitation energy:                                               3.581140 eV
  Excitation energy:                                               3.553513 eV
  Excitation energy:                                               3.281628 eV
  Excitation energy:                                               2.709680 eV
  Excitation energy:                                               2.184114 eV
  Excitation energy:                                               1.758925 eV
  Excitation energy:                                               1.199554 eV
  Excitation energy:                                               0.252009 eV
  Excitation energy:                                               0.183155 eV

                    Orbital Energies (a.u.)
 --------------------------------------------------------------

 Alpha MOs
 -- Occupied --
-11.2335 -11.2302  -1.0396  -0.7857  -0.6399  -0.5889  -0.4950  -0.3811

          Ground-State Mulliken Net Atomic Charges

     Atom                 Charge (a.u.)
  ----------------------------------------
      1 H                     0.045184
      2 C                    -0.104918
      3 H                     0.050230
      4 C                    -0.082277
      5 H                     0.044190
      6 H                     0.047592
  ----------------------------------------
  Sum of atomic charges =     0.000000

                    Cartesian Multipole Moments
 -----------------------------------------------------------------
    Charge (ESU x 10^10)
                 0.0000
    Dipole Moment (Debye)
         X       0.0108      Y       0.0190      Z       0.0061
       Tot       0.0227
    Quadrupole Moments (Debye-Ang)
        XX     -12.1451     XY      -0.1031     YY     -12.4329
        XZ       0.1471     YZ       0.1766     ZZ     -15.4674

 Total job time:  71.20s(wall), 253.76s(cpu)
        *  Thank you very much for using Q-Chem.  Have a nice day.  *
