 Q-Chem 5.4 (devel), Q-Chem, Inc., Pleasanton, CA (2021)
 Q-Chem 5.4.1 for Intel X86 EM64T Linux

User input:
--------------------------------------------------------------
$molecule
0 1
 H        -0.1124474321   -0.4690617682   -0.5779191310
 C        -1.0734705817   -0.5288275903   -0.0017100316
 H        -1.0774615914   -1.4980317716    0.5633119047
 C        -2.0492112913    0.3981501872    0.0074728569
 H        -2.1049614108    1.2924898782    0.6825046162
 H        -2.9505103996    0.4135763464   -0.6608610529
$end

$rem
  JOBTYPE                opt
  METHOD                 b3lyp
  BASIS                  cc-pvdz
  SYM_IGNORE             true
$end

--------------------------------------------------------------

   11     -78.4462146815      1.82e-09  Convergence criterion met
 Total energy in the final basis set =      -78.4462146815
    8     -78.4728152172      8.98e-09  Convergence criterion met
 Total energy in the final basis set =      -78.4728152172
    8     -78.4963936140      7.47e-09  Convergence criterion met
 Total energy in the final basis set =      -78.4963936140
    9     -78.5175189182      8.02e-10  Convergence criterion met
 Total energy in the final basis set =      -78.5175189182
    8     -78.5362010704      5.26e-09  Convergence criterion met
 Total energy in the final basis set =      -78.5362010704
    8     -78.5523392738      4.36e-09  Convergence criterion met
 Total energy in the final basis set =      -78.5523392738
    8     -78.5658116159      4.51e-09  Convergence criterion met
 Total energy in the final basis set =      -78.5658116159
    8     -78.5765048249      3.35e-09  Convergence criterion met
 Total energy in the final basis set =      -78.5765048249
    8     -78.5843320770      3.13e-09  Convergence criterion met
 Total energy in the final basis set =      -78.5843320770
    8     -78.5892339992      2.73e-09  Convergence criterion met
 Total energy in the final basis set =      -78.5892339992
    8     -78.5911811285      2.90e-09  Convergence criterion met
 Total energy in the final basis set =      -78.5911811285
    7     -78.5912203332      3.58e-09  Convergence criterion met
 Total energy in the final basis set =      -78.5912203332
    6     -78.5912205520      2.78e-09  Convergence criterion met
 Total energy in the final basis set =      -78.5912205520
 Final energy is   -78.591220551969514
 **  OPTIMIZATION CONVERGED  **
 Total job time:  30.22s(wall), 47.98s(cpu)
        *  Thank you very much for using Q-Chem.  Have a nice day.  *

User input: 2 of 2

                  Welcome to Q-Chem
     A Quantum Leap Into The Future Of Chemistry

 Q-Chem 5.4 (devel), Q-Chem, Inc., Pleasanton, CA (2021)

 E. Epifanovsky,  A. T. B. Gilbert,  Xintian Feng,  Joonho Lee,  Yuezhi Mao,
 N. Mardirossian,  P. Pokhilko,  A. White,  M. Wormit,  M. P. Coons,
 A. L. Dempwolff,  Zhengting Gan,  D. Hait,  P. R. Horn,  L. D. Jacobson,
 I. Kaliman,  J. Kussmann,  A. W. Lange,  Ka Un Lao,  D. S. Levine,  Jie Liu,
 S. C. McKenzie,  A. F. Morrison,  K. Nanda,  F. Plasser,  D. R. Rehn,
 M. L. Vidal,  Zhi-Qiang You,  Ying Zhu,  B. Alam,  B. Albrecht,
 A. Aldossary,  E. Alguire,  J. H. Andersen,  D. Barton,  K. Begam,  A. Behn,
 Y. A. Bernard,  E. J. Berquist,  H. Burton,  A. Carreras,  K. Carter-Fenk,
 R. Chakraborty,  A. D. Chien,  K. D. Closser,  V. Cofer-Shabica,
 S. Dasgupta,  Jia Deng,  M. de Wergifosse,  M. Diedenhofen,  Hainam Do,
 S. Ehlert,  Po-Tung Fang,  S. Fatehi,  Qingguo Feng,  T. Friedhoff,
 J. Gayvert,  Qinghui Ge,  G. Gidofalvi,  M. Goldey,  J. Gomes,
 C. Gonzalez-Espinoza,  S. Gulania,  A. Gunina,  M. W. D. Hanson-Heine,
 P. H. P. Harbach,  A. W. Hauser,  M. F. Herbst,  M. Hernandez Vera,
 M. Hodecker,  Z. C. Holden,  S. Houck,  Xunkun Huang,  Kerwin Hui,
 B. C. Huynh,  M. Ivanov,  Hyunjun Ji,  Hanjie Jiang,  B. Kaduk,  S. Kaehler,
 K. Khistyaev,  Jaehoon Kim,  P. Klunzinger,  Z. Koczor-Benda,
 Joong Hoon Koh,  D. Kosenkov,  L. Koulias,  T. Kowalczyk,  C. M. Krauter,
 K. Kue,  A. Kunitsa,  T. Kus,  A. Landau,  K. V. Lawler,  D. Lefrancois,
 S. Lehtola,  Rain Li,  Yi-Pei Li,  Jiashu Liang,  M. Liebenthal,
 Hung-Hsuan Lin,  You-Sheng Lin,  Fenglai Liu,  Kuan-Yu Liu,
 M. Loipersberger,  A. Luenser,  A. Manjanath,  P. Manohar,  E. Mansoor,
 S. F. Manzer,  Shan-Ping Mao,  A. V. Marenich,  T. Markovich,  S. Mason,
 S. A. Maurer,  P. F. McLaughlin,  M. F. S. J. Menger,  J.-M. Mewes,
 S. A. Mewes,  P. Morgante,  J. W. Mullinax,  K. J. Oosterbaan,  G. Paran,
 Alexander C. Paul,  Suranjan K. Paul,  F. Pavosevic,  Zheng Pei,  S. Prager,
 E. I. Proynov,  E. Ramos,  B. Rana,  A. E. Rask,  A. Rettig,  R. M. Richard,
 F. Rob,  E. Rossomme,  T. Scheele,  M. Scheurer,  M. Schneider,
 N. Sergueev,  S. M. Sharada,  W. Skomorowski,  D. W. Small,  C. J. Stein,
 Yu-Chuan Su,  E. J. Sundstrom,  Zhen Tao,  J. Thirman,  T. Tsuchimochi,
 N. M. Tubman,  S. P. Veccham,  O. Vydrov,  J. Wenzel,  J. Witte,  A. Yamada,
 Kun Yao,  S. Yeganeh,  S. R. Yost,  A. Zech,  Igor Ying Zhang,  Xing Zhang,
 Yu Zhang,  D. Zuev,  A. Aspuru-Guzik,  A. T. Bell,  N. A. Besley,
 K. B. Bravaya,  B. R. Brooks,  D. Casanova,  Jeng-Da Chai,  S. Coriani,
 C. J. Cramer,  A. E. DePrince, III,  R. A. DiStasio Jr.,  A. Dreuw,
 B. D. Dunietz,  T. R. Furlani,  W. A. Goddard III,  S. Grimme,
 S. Hammes-Schiffer,  T. Head-Gordon,  W. J. Hehre,  Chao-Ping Hsu,
 T.-C. Jagau,  Yousung Jung,  A. Klamt,  Jing Kong,  D. S. Lambrecht,
 WanZhen Liang,  N. J. Mayhall,  C. W. McCurdy,  J. B. Neaton,
 C. Ochsenfeld,  J. A. Parkhill,  R. Peverati,  V. A. Rassolov,  Yihan Shao,
 L. V. Slipchenko,  T. Stauch,  R. P. Steele,  J. E. Subotnik,
 A. J. W. Thom,  A. Tkatchenko,  D. G. Truhlar,  T. Van Voorhis,
 T. A. Wesolowski,  K. B. Whaley,  H. L. Woodcock III,  P. M. Zimmerman,
 S. Faraji,  P. M. W. Gill,  M. Head-Gordon,  J. M. Herbert,  A. I. Krylov

 Additional authors for Version 5.4.1:
 S. Kotaru,  Shaozhi Li,  Xiangyuan Li,  F. Matz,  A. Molle,  Haisheng Ren,
 Yingli Su,  Hung-Yi Tsai,  C. Utku,  Fang Wang

 Contributors to earlier versions of Q-Chem not listed above:
 R. D. Adamson,  B. Austin,  R. Baer,  J. Baker,  G. J. O. Beran,
 K. Brandhorst,  S. T. Brown,  E. F. C. Byrd,  A. K. Chakraborty,
 G. K. L. Chan,  Chun-Min Chang,  Yunqing Chen,  C.-L. Cheng,
 Siu Hung Chien,  D. M. Chipman,  D. L. Crittenden,  H. Dachsel,
 R. J. Doerksen,  A. D. Dutoi,  R. G. Edgar,  J. Fosso-Tande,
 L. Fusti-Molnar,  D. Ghosh,  A. Ghysels,  A. Golubeva-Zadorozhnaya,
 J. Gonthier,  M. S. Gordon,  S. R. Gwaltney,  G. Hawkins,  J. E. Herr,
 A. Heyden,  S. Hirata,  E. G. Hohenstein,  G. Kedziora,  F. J. Keil,
 C. Kelley,  Jihan Kim,  R. A. King,  R. Z. Khaliullin,  P. P. Korambath,
 W. Kurlancheek,  A. Laurent,  A. M. Lee,  M. S. Lee,  S. V. Levchenko,
 Ching Yeh Lin,  D. Liotard,  E. Livshits,  R. C. Lochan,  I. Lotan,
 L. A. Martinez-Martinez,  P. E. Maslen,  N. Nair,  D. P. O'Neill,
 D. Neuhauser,  E. Neuscamman,  C. M. Oana,  R. Olivares-Amaya,  R. Olson,
 T. M. Perrine,  B. Peters,  P. A. Pieniazek,  A. Prociuk,  Y. M. Rhee,
 J. Ritchie,  M. A. Rohrdanz,  E. Rosta,  N. J. Russ,  H. F. Schaefer III,
 M. W. Schmidt,  N. E. Schultz,  S. Sharma,  N. Shenvi,  C. D. Sherrill,
 A. C. Simmonett,  A. Sodt,  T. Stein,  D. Stuck,  K. S. Thanthiriwatte,
 V. Vanovschi,  L. Vogt,  Tao Wang,  A. Warshel,  M. A. Watson,
 C. F. Williams,  Q. Wu,  X. Xu,  Jun Yang,  W. Zhang,  Yan Zhao

 Please cite Q-Chem as follows:
 Y. Shao et al., Mol. Phys. 113, 184-215 (2015)
 DOI: 10.1080/00268976.2014.952696

 Q-Chem 5.4.1 for Intel X86 EM64T Linux

 Parts of Q-Chem use Armadillo 9.800.1 (Horizon Scraper).
 http://arma.sourceforge.net/

 Q-Chem begins on Mon Mar 20 12:10:24 2023

 Host: cpu198.baobab
0

     Scratch files written to /scratch/fum/qchem16162//
 Processing $rem in /home/share/wesolowski/qc5.aug2021.FDE/config/preferences:
 Processing $rem in /home/fum/.qchemrc:
The previous job contains 0 fragments, simply inherited here

 Checking the input file for inconsistencies... 	...done.

--------------------------------------------------------------
User input:
--------------------------------------------------------------

$molecule
read
$end

$rem
   JOBTYPE            freq
   METHOD             b3lyp
   BASIS              cc-pvdz
   SYM_IGNORE         true
   vibman_print       6
   molden_format          true
$end

--------------------------------------------------------------

             Standard Nuclear Orientation (Angstroms)
    I     Atom           X                Y                Z
 ----------------------------------------------------------------
    1      H      -0.0215469356    -0.2469766659     0.0651269053
    2      C      -1.0779113068    -0.5244188153    -0.0023630204
    3      H      -1.3012023007    -1.5930418722    -0.0776959385
    4      C      -2.0447597208     0.3938428784     0.0066099599
    5      H      -1.8215079279     1.4624778413     0.0819226840
    6      H      -3.1011345151     0.1164119154    -0.0608014280
 ----------------------------------------------------------------

   10     -78.5912205551      6.51e-10  Convergence criterion met
 Total energy in the final basis set =      -78.5912205551

                    Orbital Energies (a.u.)
 --------------------------------------------------------------

 Alpha MOs
 -- Occupied --
-10.1901 -10.1894  -0.7596  -0.5774  -0.4658  -0.4187  -0.3537  -0.2736

          Ground-State Mulliken Net Atomic Charges

     Atom                 Charge (a.u.)
  ----------------------------------------
      1 H                     0.022023
      2 C                    -0.044047
      3 H                     0.022031
      4 C                    -0.044059
      5 H                     0.022030
      6 H                     0.022022
  ----------------------------------------
  Sum of atomic charges =     0.000000

                    Cartesian Multipole Moments
 -----------------------------------------------------------------
    Charge (ESU x 10^10)
                -0.0000
    Dipole Moment (Debye)
         X      -0.0000      Y       0.0000      Z       0.0000
       Tot       0.0000
    Quadrupole Moments (Debye-Ang)
        XX     -12.3199     XY      -0.0371     YY     -12.3265
        XZ       0.1338     YZ       0.1692     ZZ     -15.1398

 Frequency:       827.01                 959.31                 968.91
 Force Cnst:      0.4201                 0.8243                 0.6420
 Red. Mass:       1.0424                 1.5202                 1.1607
 IR Intens:        0.626                  0.000                 72.451
 Frequency:      1057.31                1229.29                1366.03
 Force Cnst:      0.6638                 1.3629                 1.2838
 Red. Mass:       1.0078                 1.5307                 1.1677
 IR Intens:        0.000                  0.000                  0.000
 Frequency:      1443.88                1695.48                3127.61
 Force Cnst:      1.3666                 6.0176                 6.0353
 Red. Mass:       1.1126                 3.5529                 1.0472
 IR Intens:        6.622                  0.000                 15.691
 Frequency:      3144.56                3209.92                3237.44
 Force Cnst:      6.2649                 6.7591                 6.9041
 Red. Mass:       1.0753                 1.1134                 1.1180
 IR Intens:        0.000                  0.000                 24.193

 STANDARD THERMODYNAMIC QUANTITIES AT   298.15 K  AND     1.00 ATM

   This Molecule has  0 Imaginary Frequencies
   Zero point vibrational energy:       31.832 kcal/mol

   Atom    1 Element H  Has Mass    1.00783
   Atom    2 Element C  Has Mass   12.00000
   Atom    3 Element H  Has Mass    1.00783
   Atom    4 Element C  Has Mass   12.00000
   Atom    5 Element H  Has Mass    1.00783
   Atom    6 Element H  Has Mass    1.00783
   Molecular Mass:    28.031320 amu
   Principal axes and moments of inertia in amu*Bohr^2:
                             1           2           3
    Eigenvalues --       12.48775    60.27622    72.76397
          X               0.72507     0.68701    -0.04790
          Y              -0.68864     0.72260    -0.06021
          Z              -0.00675     0.07665     0.99704
   Rotational Symmetry Number is   1
   The Molecule is an Asymmetric Top
   Translational Enthalpy:        0.889 kcal/mol
   Rotational Enthalpy:           0.889 kcal/mol
   Vibrational Enthalpy:         31.968 kcal/mol
   gas constant (RT):             0.592 kcal/mol
   Translational Entropy:        35.927  cal/mol.K
   Rotational Entropy:           18.644  cal/mol.K
   Vibrational Entropy:           0.554  cal/mol.K

   Total Enthalpy:               34.338 kcal/mol
   Total Entropy:                55.125  cal/mol.K
 Total job time:  5.44s(wall), 16.28s(cpu)
        *  Thank you very much for using Q-Chem.  Have a nice day.  *
