 Q-Chem 5.4 (devel), Q-Chem, Inc., Pleasanton, CA (2021)
 Q-Chem 5.4.1 for Intel X86 EM64T Linux

User input:
--------------------------------------------------------------
$comment
generated from CCJob.Templates
$end

$rem
sym_ignore = true
method = adc(2)
ee_states = 10
basis = cc-pVDZ
mem_static = 1024
mem_total = 40000
adc_davidson_maxiter = 900
adc_davidson_conv = 6
adc_print = 3
adc_prop_es = true
adc_prop_es2es = true
adc_prop_tpa = true
molden_format = True
state_analysis = true
print_orbitals = 15
gen_scfman = false
fde_export_density = true
fde_details = 3
$end

$molecule
0 1
H -0.0348278765 -0.2442097827 0.0636489606
C -1.0765972949 -0.5242748755 -0.0023551776
H -1.313264467 -1.5767591607 -0.0757276926
C -2.003634118 0.3926884087 0.0061254933
H -1.8137616575 1.4459188338 0.0804456828
H -3.085977293 0.114931858 -0.0593381042
$end
--------------------------------------------------------------

             Standard Nuclear Orientation (Angstroms)
    I     Atom           X                Y                Z
 ----------------------------------------------------------------
    1      H      -0.0348278765    -0.2442097827     0.0636489606
    2      C      -1.0765972949    -0.5242748755    -0.0023551776
    3      H      -1.3132644670    -1.5767591607    -0.0757276926
    4      C      -2.0036341180     0.3926884087     0.0061254933
    5      H      -1.8137616575     1.4459188338     0.0804456828
    6      H      -3.0859772930     0.1149318580    -0.0593381042
 ----------------------------------------------------------------

   11     -78.0386258284      6.14E-09 Convergence criterion met
 Total energy in the final basis set = -78.03862583
  Excited state 1 (singlet, A)                                     [converged]
  Term symbol:  2 (1) A                                     R^2 =  9.35555e-14
  Excitation energy:                                               8.991741 eV
  Excited state 2 (singlet, A)                                     [converged]
  Term symbol:  3 (1) A                                     R^2 =  5.92686e-14
  Excitation energy:                                               9.016996 eV
  Excited state 3 (singlet, A)                                     [converged]
  Term symbol:  4 (1) A                                     R^2 =  1.26646e-13
  Excitation energy:                                               9.285421 eV
  Excited state 4 (singlet, A)                                     [converged]
  Term symbol:  5 (1) A                                     R^2 =  1.13258e-13
  Excitation energy:                                               9.849287 eV
  Excited state 5 (singlet, A)                                     [converged]
  Term symbol:  6 (1) A                                     R^2 =  2.19653e-13
  Excitation energy:                                              10.379452 eV
  Excited state 6 (singlet, A)                                     [converged]
  Term symbol:  7 (1) A                                     R^2 =  5.30286e-13
  Excitation energy:                                              10.805500 eV
  Excited state 7 (singlet, A)                                     [converged]
  Term symbol:  8 (1) A                                     R^2 =  6.28452e-13
  Excitation energy:                                              11.358931 eV
  Excited state 8 (singlet, A)                                     [converged]
  Term symbol:  9 (1) A                                     R^2 =  1.24376e-10
  Excitation energy:                                              12.318693 eV
  Excited state 9 (singlet, A)                                     [converged]
  Term symbol:  10 (1) A                                    R^2 =  3.33309e-08
  Excitation energy:                                              12.370240 eV
  Excited state 10 (singlet, A)                                     [converged]
  Term symbol:  11 (1) A                                    R^2 =  4.51517e-07
  Excitation energy:                                              12.570755 eV
  Excitation energy:                                               0.025255 eV
  Excitation energy:                                               0.293679 eV
  Excitation energy:                                               0.268424 eV
  Excitation energy:                                               0.857545 eV
  Excitation energy:                                               0.832291 eV
  Excitation energy:                                               0.563866 eV
  Excitation energy:                                               1.387711 eV
  Excitation energy:                                               1.362456 eV
  Excitation energy:                                               1.094032 eV
  Excitation energy:                                               0.530165 eV
  Excitation energy:                                               1.813759 eV
  Excitation energy:                                               1.788504 eV
  Excitation energy:                                               1.520080 eV
  Excitation energy:                                               0.956214 eV
  Excitation energy:                                               0.426048 eV
  Excitation energy:                                               2.367190 eV
  Excitation energy:                                               2.341935 eV
  Excitation energy:                                               2.073511 eV
  Excitation energy:                                               1.509645 eV
  Excitation energy:                                               0.979479 eV
  Excitation energy:                                               0.553431 eV
  Excitation energy:                                               3.326952 eV
  Excitation energy:                                               3.301697 eV
  Excitation energy:                                               3.033273 eV
  Excitation energy:                                               2.469407 eV
  Excitation energy:                                               1.939241 eV
  Excitation energy:                                               1.513193 eV
  Excitation energy:                                               0.959762 eV
  Excitation energy:                                               3.378499 eV
  Excitation energy:                                               3.353244 eV
  Excitation energy:                                               3.084819 eV
  Excitation energy:                                               2.520953 eV
  Excitation energy:                                               1.990788 eV
  Excitation energy:                                               1.564740 eV
  Excitation energy:                                               1.011308 eV
  Excitation energy:                                               0.051547 eV
  Excitation energy:                                               3.579014 eV
  Excitation energy:                                               3.553759 eV
  Excitation energy:                                               3.285335 eV
  Excitation energy:                                               2.721469 eV
  Excitation energy:                                               2.191303 eV
  Excitation energy:                                               1.765255 eV
  Excitation energy:                                               1.211824 eV
  Excitation energy:                                               0.252062 eV
  Excitation energy:                                               0.200516 eV

                    Orbital Energies (a.u.)
 --------------------------------------------------------------

 Alpha MOs
 -- Occupied --
-11.2333 -11.2300  -1.0400  -0.7853  -0.6400  -0.5888  -0.4950  -0.3814

          Ground-State Mulliken Net Atomic Charges

     Atom                 Charge (a.u.)
  ----------------------------------------
      1 H                     0.045084
      2 C                    -0.081274
      3 H                     0.047381
      4 C                    -0.106026
      5 H                     0.044564
      6 H                     0.050272
  ----------------------------------------
  Sum of atomic charges =     0.000000

                    Cartesian Multipole Moments
 -----------------------------------------------------------------
    Charge (ESU x 10^10)
                 0.0000
    Dipole Moment (Debye)
         X       0.0140      Y       0.0149      Z       0.0053
       Tot       0.0211
    Quadrupole Moments (Debye-Ang)
        XX     -12.4181     XY      -0.1113     YY     -12.1710
        XZ       0.1320     YZ       0.1939     ZZ     -15.4627

 Total job time:  75.26s(wall), 264.11s(cpu)
        *  Thank you very much for using Q-Chem.  Have a nice day.  *
