 Q-Chem 5.4 (devel), Q-Chem, Inc., Pleasanton, CA (2021)
 Q-Chem 5.4.1 for Intel X86 EM64T Linux

User input:
--------------------------------------------------------------
$comment
generated from CCJob.Templates
$end

$rem
sym_ignore = true
method = adc(2)
ee_states = 10
basis = cc-pVDZ
mem_static = 1024
mem_total = 40000
adc_davidson_maxiter = 900
adc_davidson_conv = 6
adc_print = 3
adc_prop_es = true
adc_prop_es2es = true
adc_prop_tpa = true
molden_format = True
state_analysis = true
print_orbitals = 15
gen_scfman = false
fde_export_density = true
fde_details = 3
$end

$molecule
0 1
H -0.02162079564259355 -0.2470771699579586 0.0667141062153057
C -1.0778252827503916 -0.5243113472380254 -0.004074373386901614
H -1.3012829407465034 -1.593134948253675 -0.07610859358461126
C -2.044845604849528 0.3937355263380923 0.008318920885522196
H -1.8214274078535657 1.4625706133534997 0.08033945508698487
H -3.1010610190576164 0.11651231545789861 -0.06238449291292055
$end
--------------------------------------------------------------

             Standard Nuclear Orientation (Angstroms)
    I     Atom           X                Y                Z
 ----------------------------------------------------------------
    1      H      -0.0216207956    -0.2470771700     0.0667141062
    2      C      -1.0778252828    -0.5243113472    -0.0040743734
    3      H      -1.3012829407    -1.5931349483    -0.0761085936
    4      C      -2.0448456048     0.3937355263     0.0083189209
    5      H      -1.8214274079     1.4625706134     0.0803394551
    6      H      -3.1010610191     0.1165123155    -0.0623844929
 ----------------------------------------------------------------

   10     -78.0396474247      4.29E-09 Convergence criterion met
 Total energy in the final basis set = -78.03964742
  Excited state 1 (singlet, A)                                     [converged]
  Term symbol:  2 (1) A                                     R^2 =  4.13278e-13
  Excitation energy:                                               8.731700 eV
  Excited state 2 (singlet, A)                                     [converged]
  Term symbol:  3 (1) A                                     R^2 =  6.14672e-13
  Excitation energy:                                               8.952278 eV
  Excited state 3 (singlet, A)                                     [converged]
  Term symbol:  4 (1) A                                     R^2 =  4.47208e-13
  Excitation energy:                                               9.141717 eV
  Excited state 4 (singlet, A)                                     [converged]
  Term symbol:  5 (1) A                                     R^2 =  4.66259e-13
  Excitation energy:                                               9.738266 eV
  Excited state 5 (singlet, A)                                     [converged]
  Term symbol:  6 (1) A                                     R^2 =  8.90605e-13
  Excitation energy:                                              10.158410 eV
  Excited state 6 (singlet, A)                                     [converged]
  Term symbol:  7 (1) A                                     R^2 =  2.86997e-12
  Excitation energy:                                              10.520703 eV
  Excited state 7 (singlet, A)                                     [converged]
  Term symbol:  8 (1) A                                     R^2 =  5.36004e-09
  Excitation energy:                                              11.433792 eV
  Excited state 8 (singlet, A)                                     [converged]
  Term symbol:  9 (1) A                                     R^2 =  1.32511e-07
  Excitation energy:                                              12.068134 eV
  Excited state 9 (singlet, A)                                     [converged]
  Term symbol:  10 (1) A                                    R^2 =  7.85301e-07
  Excitation energy:                                              12.346749 eV
  Excited state 10 (singlet, A)                                     [converged]
  Term symbol:  11 (1) A                                    R^2 =  1.92930e-08
  Excitation energy:                                              12.476745 eV
  Excitation energy:                                               0.220578 eV
  Excitation energy:                                               0.410017 eV
  Excitation energy:                                               0.189439 eV
  Excitation energy:                                               1.006566 eV
  Excitation energy:                                               0.785988 eV
  Excitation energy:                                               0.596549 eV
  Excitation energy:                                               1.426710 eV
  Excitation energy:                                               1.206132 eV
  Excitation energy:                                               1.016693 eV
  Excitation energy:                                               0.420144 eV
  Excitation energy:                                               1.789003 eV
  Excitation energy:                                               1.568425 eV
  Excitation energy:                                               1.378985 eV
  Excitation energy:                                               0.782437 eV
  Excitation energy:                                               0.362293 eV
  Excitation energy:                                               2.702092 eV
  Excitation energy:                                               2.481514 eV
  Excitation energy:                                               2.292075 eV
  Excitation energy:                                               1.695526 eV
  Excitation energy:                                               1.275382 eV
  Excitation energy:                                               0.913090 eV
  Excitation energy:                                               3.336434 eV
  Excitation energy:                                               3.115856 eV
  Excitation energy:                                               2.926417 eV
  Excitation energy:                                               2.329868 eV
  Excitation energy:                                               1.909724 eV
  Excitation energy:                                               1.547431 eV
  Excitation energy:                                               0.634342 eV
  Excitation energy:                                               3.615049 eV
  Excitation energy:                                               3.394471 eV
  Excitation energy:                                               3.205032 eV
  Excitation energy:                                               2.608483 eV
  Excitation energy:                                               2.188339 eV
  Excitation energy:                                               1.826046 eV
  Excitation energy:                                               0.912957 eV
  Excitation energy:                                               0.278615 eV
  Excitation energy:                                               3.745045 eV
  Excitation energy:                                               3.524467 eV
  Excitation energy:                                               3.335027 eV
  Excitation energy:                                               2.738479 eV
  Excitation energy:                                               2.318335 eV
  Excitation energy:                                               1.956042 eV
  Excitation energy:                                               1.042952 eV
  Excitation energy:                                               0.408611 eV
  Excitation energy:                                               0.129996 eV

                    Orbital Energies (a.u.)
 --------------------------------------------------------------

 Alpha MOs
 -- Occupied --
-11.2388 -11.2372  -1.0299  -0.7859  -0.6350  -0.5823  -0.4995  -0.3744

          Ground-State Mulliken Net Atomic Charges

     Atom                 Charge (a.u.)
  ----------------------------------------
      1 H                     0.052374
      2 C                    -0.104750
      3 H                     0.052382
      4 C                    -0.104758
      5 H                     0.052381
      6 H                     0.052371
  ----------------------------------------
  Sum of atomic charges =     0.000000

                    Cartesian Multipole Moments
 -----------------------------------------------------------------
    Charge (ESU x 10^10)
                -0.0000
    Dipole Moment (Debye)
         X      -0.0000      Y       0.0000      Z       0.0001
       Tot       0.0001
    Quadrupole Moments (Debye-Ang)
        XX     -12.2460     XY      -0.1053     YY     -12.2588
        XZ       0.1625     YZ       0.1924     ZZ     -15.6099

 Total job time:  129.97s(wall), 393.47s(cpu)
        *  Thank you very much for using Q-Chem.  Have a nice day.  *
