 Q-Chem 5.4 (devel), Q-Chem, Inc., Pleasanton, CA (2021)
 Q-Chem 5.4.1 for Intel X86 EM64T Linux

User input:
--------------------------------------------------------------
$comment
generated from CCJob.Templates
$end

$rem
sym_ignore = true
method = adc(2)
ee_states = 10
basis = cc-pVDZ
mem_static = 1024
mem_total = 30000
adc_davidson_maxiter = 900
adc_davidson_conv = 6
adc_print = 3
adc_prop_es = true
adc_prop_es2es = true
adc_prop_tpa = true
molden_format = True
state_analysis = true
print_orbitals = 15
gen_scfman = false
fde_export_density = true
fde_details = 3
$end

$molecule
0 1
H -0.0348278765 -0.2442097827 0.0636489606
C -1.0765972949 -0.5242748755 -0.0023551776
H -1.313264467 -1.5767591607 -0.0757276926
C -2.043634118 0.3926884087 0.0061254933
H -1.8137616575 1.4459188338 0.0804456828
H -3.085977293 0.114931858 -0.0543381042
$end
--------------------------------------------------------------

             Standard Nuclear Orientation (Angstroms)
    I     Atom           X                Y                Z
 ----------------------------------------------------------------
    1      H      -0.0348278765    -0.2442097827     0.0636489606
    2      C      -1.0765972949    -0.5242748755    -0.0023551776
    3      H      -1.3132644670    -1.5767591607    -0.0757276926
    4      C      -2.0436341180     0.3926884087     0.0061254933
    5      H      -1.8137616575     1.4459188338     0.0804456828
    6      H      -3.0859772930     0.1149318580    -0.0543381042
 ----------------------------------------------------------------

   11     -78.0399247410      2.92E-09 Convergence criterion met
 Total energy in the final basis set = -78.03992474
  Excited state 1 (singlet, A)                                     [converged]
  Term symbol:  2 (1) A                                     R^2 =  1.54781e-14
  Excitation energy:                                               8.736972 eV
  Excited state 2 (singlet, A)                                     [converged]
  Term symbol:  3 (1) A                                     R^2 =  3.50809e-14
  Excitation energy:                                               9.054644 eV
  Excited state 3 (singlet, A)                                     [converged]
  Term symbol:  4 (1) A                                     R^2 =  1.76527e-14
  Excitation energy:                                               9.171177 eV
  Excited state 4 (singlet, A)                                     [converged]
  Term symbol:  5 (1) A                                     R^2 =  2.04284e-14
  Excitation energy:                                               9.833834 eV
  Excited state 5 (singlet, A)                                     [converged]
  Term symbol:  6 (1) A                                     R^2 =  7.46120e-14
  Excitation energy:                                              10.212501 eV
  Excited state 6 (singlet, A)                                     [converged]
  Term symbol:  7 (1) A                                     R^2 =  2.96077e-13
  Excitation energy:                                              10.536108 eV
  Excited state 7 (singlet, A)                                     [converged]
  Term symbol:  8 (1) A                                     R^2 =  3.33775e-12
  Excitation energy:                                              11.557507 eV
  Excited state 8 (singlet, A)                                     [converged]
  Term symbol:  9 (1) A                                     R^2 =  9.33454e-11
  Excitation energy:                                              12.165518 eV
  Excited state 9 (singlet, A)                                     [converged]
  Term symbol:  10 (1) A                                    R^2 =  2.37428e-09
  Excitation energy:                                              12.417251 eV
  Excited state 10 (singlet, A)                                     [converged]
  Term symbol:  11 (1) A                                    R^2 =  9.73598e-07
  Excitation energy:                                              12.646433 eV
  Excitation energy:                                               0.317672 eV
  Excitation energy:                                               0.434205 eV
  Excitation energy:                                               0.116533 eV
  Excitation energy:                                               1.096863 eV
  Excitation energy:                                               0.779191 eV
  Excitation energy:                                               0.662657 eV
  Excitation energy:                                               1.475530 eV
  Excitation energy:                                               1.157857 eV
  Excitation energy:                                               1.041324 eV
  Excitation energy:                                               0.378667 eV
  Excitation energy:                                               1.799137 eV
  Excitation energy:                                               1.481464 eV
  Excitation energy:                                               1.364931 eV
  Excitation energy:                                               0.702274 eV
  Excitation energy:                                               0.323607 eV
  Excitation energy:                                               2.820536 eV
  Excitation energy:                                               2.502863 eV
  Excitation energy:                                               2.386330 eV
  Excitation energy:                                               1.723673 eV
  Excitation energy:                                               1.345006 eV
  Excitation energy:                                               1.021399 eV
  Excitation energy:                                               3.428547 eV
  Excitation energy:                                               3.110874 eV
  Excitation energy:                                               2.994341 eV
  Excitation energy:                                               2.331684 eV
  Excitation energy:                                               1.953017 eV
  Excitation energy:                                               1.629410 eV
  Excitation energy:                                               0.608011 eV
  Excitation energy:                                               3.680279 eV
  Excitation energy:                                               3.362607 eV
  Excitation energy:                                               3.246074 eV
  Excitation energy:                                               2.583416 eV
  Excitation energy:                                               2.204750 eV
  Excitation energy:                                               1.881143 eV
  Excitation energy:                                               0.859744 eV
  Excitation energy:                                               0.251733 eV
  Excitation energy:                                               3.909462 eV
  Excitation energy:                                               3.591789 eV
  Excitation energy:                                               3.475256 eV
  Excitation energy:                                               2.812599 eV
  Excitation energy:                                               2.433932 eV
  Excitation energy:                                               2.110325 eV
  Excitation energy:                                               1.088926 eV
  Excitation energy:                                               0.480915 eV
  Excitation energy:                                               0.229182 eV

                    Orbital Energies (a.u.)
 --------------------------------------------------------------

 Alpha MOs
 -- Occupied --
-11.2351 -11.2334  -1.0323  -0.7898  -0.6412  -0.5819  -0.5046  -0.3740

          Ground-State Mulliken Net Atomic Charges

     Atom                 Charge (a.u.)
  ----------------------------------------
      1 H                     0.048123
      2 C                    -0.095163
      3 H                     0.047660
      4 C                    -0.095372
      5 H                     0.047170
      6 H                     0.047581
  ----------------------------------------
  Sum of atomic charges =     0.000000

                    Cartesian Multipole Moments
 -----------------------------------------------------------------
    Charge (ESU x 10^10)
                -0.0000
    Dipole Moment (Debye)
         X      -0.0021      Y       0.0015      Z       0.0046
       Tot       0.0053
    Quadrupole Moments (Debye-Ang)
        XX     -12.2113     XY      -0.0584     YY     -12.2681
        XZ       0.1409     YZ       0.1931     ZZ     -15.5413

 Total job time:  131.46s(wall), 359.71s(cpu)
        *  Thank you very much for using Q-Chem.  Have a nice day.  *
