 Q-Chem 5.4 (devel), Q-Chem, Inc., Pleasanton, CA (2021)
 Q-Chem 5.4.1 for Intel X86 EM64T Linux

User input:
--------------------------------------------------------------
$comment
generated from CCJob.Templates
$end

$rem
sym_ignore = true
method = adc(2)
ee_states = 10
basis = cc-pVDZ
mem_static = 1024
mem_total = 40000
adc_davidson_maxiter = 900
adc_davidson_conv = 6
adc_print = 3
adc_prop_es = true
adc_prop_es2es = true
adc_prop_tpa = true
molden_format = True
state_analysis = true
print_orbitals = 15
gen_scfman = false
fde_export_density = true
fde_details = 3
$end

$molecule
0 1
H -0.02144933563450246 -0.24689326192948405 0.06328740995027804
C -1.077957234783764 -0.5244774232792816 -0.0012950127775502398
H -1.3011412647215768 -1.5929229202420505 -0.07954484584639473
C -2.044805776783719 0.3937840784207863 0.00768182352108663
H -1.8214468079216064 1.4625970012578757 0.08007022465486092
H -3.1010368671345194 0.11649552737044241 -0.06264444734847618
$end
--------------------------------------------------------------

             Standard Nuclear Orientation (Angstroms)
    I     Atom           X                Y                Z
 ----------------------------------------------------------------
    1      H      -0.0214493356    -0.2468932619     0.0632874100
    2      C      -1.0779572348    -0.5244774233    -0.0012950128
    3      H      -1.3011412647    -1.5929229202    -0.0795448458
    4      C      -2.0448057768     0.3937840784     0.0076818235
    5      H      -1.8214468079     1.4625970013     0.0800702247
    6      H      -3.1010368671     0.1164955274    -0.0626444473
 ----------------------------------------------------------------

   10     -78.0396496341      4.03E-09 Convergence criterion met
 Total energy in the final basis set = -78.03964963
  Excited state 1 (singlet, A)                                     [converged]
  Term symbol:  2 (1) A                                     R^2 =  1.84340e-11
  Excitation energy:                                               8.731745 eV
  Excited state 2 (singlet, A)                                     [converged]
  Term symbol:  3 (1) A                                     R^2 =  1.62395e-10
  Excitation energy:                                               8.952367 eV
  Excited state 3 (singlet, A)                                     [converged]
  Term symbol:  4 (1) A                                     R^2 =  6.39034e-12
  Excitation energy:                                               9.141657 eV
  Excited state 4 (singlet, A)                                     [converged]
  Term symbol:  5 (1) A                                     R^2 =  3.91255e-12
  Excitation energy:                                               9.738206 eV
  Excited state 5 (singlet, A)                                     [converged]
  Term symbol:  6 (1) A                                     R^2 =  4.51721e-12
  Excitation energy:                                              10.158450 eV
  Excited state 6 (singlet, A)                                     [converged]
  Term symbol:  7 (1) A                                     R^2 =  3.89671e-11
  Excitation energy:                                              10.520842 eV
  Excited state 7 (singlet, A)                                     [converged]
  Term symbol:  8 (1) A                                     R^2 =  1.11829e-07
  Excitation energy:                                              11.433793 eV
  Excited state 8 (singlet, A)                                     [converged]
  Term symbol:  9 (1) A                                     R^2 =  8.84484e-08
  Excitation energy:                                              12.068214 eV
  Excited state 9 (singlet, A)                                     [converged]
  Term symbol:  10 (1) A                                    R^2 =  3.17688e-07
  Excitation energy:                                              12.346809 eV
  Excited state 10 (singlet, A)                                     [converged]
  Term symbol:  11 (1) A                                    R^2 =  9.57430e-07
  Excitation energy:                                              12.476715 eV
  Excitation energy:                                               0.220623 eV
  Excitation energy:                                               0.409912 eV
  Excitation energy:                                               0.189290 eV
  Excitation energy:                                               1.006462 eV
  Excitation energy:                                               0.785839 eV
  Excitation energy:                                               0.596549 eV
  Excitation energy:                                               1.426705 eV
  Excitation energy:                                               1.206083 eV
  Excitation energy:                                               1.016793 eV
  Excitation energy:                                               0.420244 eV
  Excitation energy:                                               1.789097 eV
  Excitation energy:                                               1.568474 eV
  Excitation energy:                                               1.379185 eV
  Excitation energy:                                               0.782635 eV
  Excitation energy:                                               0.362392 eV
  Excitation energy:                                               2.702049 eV
  Excitation energy:                                               2.481426 eV
  Excitation energy:                                               2.292136 eV
  Excitation energy:                                               1.695587 eV
  Excitation energy:                                               1.275343 eV
  Excitation energy:                                               0.912952 eV
  Excitation energy:                                               3.336470 eV
  Excitation energy:                                               3.115847 eV
  Excitation energy:                                               2.926557 eV
  Excitation energy:                                               2.330008 eV
  Excitation energy:                                               1.909764 eV
  Excitation energy:                                               1.547373 eV
  Excitation energy:                                               0.634421 eV
  Excitation energy:                                               3.615064 eV
  Excitation energy:                                               3.394441 eV
  Excitation energy:                                               3.205151 eV
  Excitation energy:                                               2.608602 eV
  Excitation energy:                                               2.188358 eV
  Excitation energy:                                               1.825967 eV
  Excitation energy:                                               0.913015 eV
  Excitation energy:                                               0.278594 eV
  Excitation energy:                                               3.744970 eV
  Excitation energy:                                               3.524348 eV
  Excitation energy:                                               3.335058 eV
  Excitation energy:                                               2.738508 eV
  Excitation energy:                                               2.318265 eV
  Excitation energy:                                               1.955873 eV
  Excitation energy:                                               1.042921 eV
  Excitation energy:                                               0.408501 eV
  Excitation energy:                                               0.129906 eV

                    Orbital Energies (a.u.)
 --------------------------------------------------------------

 Alpha MOs
 -- Occupied --
-11.2388 -11.2372  -1.0299  -0.7859  -0.6350  -0.5823  -0.4995  -0.3744

          Ground-State Mulliken Net Atomic Charges

     Atom                 Charge (a.u.)
  ----------------------------------------
      1 H                     0.052372
      2 C                    -0.104749
      3 H                     0.052382
      4 C                    -0.104756
      5 H                     0.052380
      6 H                     0.052370
  ----------------------------------------
  Sum of atomic charges =     0.000000

                    Cartesian Multipole Moments
 -----------------------------------------------------------------
    Charge (ESU x 10^10)
                -0.0000
    Dipole Moment (Debye)
         X       0.0004      Y       0.0005      Z      -0.0081
       Tot       0.0081
    Quadrupole Moments (Debye-Ang)
        XX     -12.2467     XY      -0.1060     YY     -12.2596
        XZ       0.1687     YZ       0.1991     ZZ     -15.6098

 Total job time:  127.93s(wall), 392.96s(cpu)
        *  Thank you very much for using Q-Chem.  Have a nice day.  *
