 Q-Chem 5.4 (devel), Q-Chem, Inc., Pleasanton, CA (2021)
 Q-Chem 5.4.1 for Intel X86 EM64T Linux

User input:
--------------------------------------------------------------
$comment
generated from CCJob.Templates
$end

$rem
sym_ignore = true
method = adc(2)
ee_states = 10
basis = cc-pVDZ
mem_static = 1024
mem_total = 40000
adc_davidson_maxiter = 900
adc_davidson_conv = 6
adc_print = 3
adc_prop_es = true
adc_prop_es2es = true
adc_prop_tpa = true
molden_format = True
state_analysis = true
print_orbitals = 15
gen_scfman = false
fde_export_density = true
fde_details = 3
$end

$molecule
0 1
H -0.02164453556549754 -0.24706006987051596 0.06696640064972195
C -1.0778653788162358 -0.5243602073207184 -0.0034310280224497604
H -1.3012633366784232 -1.5931608241579494 -0.07584703115360528
C -2.0447136648162814 0.3939016783792137 0.00553809627891337
H -1.8215690478783935 1.462358681342124 0.08377514334513907
H -3.1012321630654807 0.11632830342955758 -0.05895840865152381
$end
--------------------------------------------------------------

             Standard Nuclear Orientation (Angstroms)
    I     Atom           X                Y                Z
 ----------------------------------------------------------------
    1      H      -0.0216445356    -0.2470600699     0.0669664006
    2      C      -1.0778653788    -0.5243602073    -0.0034310280
    3      H      -1.3012633367    -1.5931608242    -0.0758470312
    4      C      -2.0447136648     0.3939016784     0.0055380963
    5      H      -1.8215690479     1.4623586813     0.0837751433
    6      H      -3.1012321631     0.1163283034    -0.0589584087
 ----------------------------------------------------------------

   10     -78.0396495869      3.59E-09 Convergence criterion met
 Total energy in the final basis set = -78.03964959
  Excited state 1 (singlet, A)                                     [converged]
  Term symbol:  2 (1) A                                     R^2 =  4.06660e-11
  Excitation energy:                                               8.731743 eV
  Excited state 2 (singlet, A)                                     [converged]
  Term symbol:  3 (1) A                                     R^2 =  1.59489e-10
  Excitation energy:                                               8.952366 eV
  Excited state 3 (singlet, A)                                     [converged]
  Term symbol:  4 (1) A                                     R^2 =  1.29447e-11
  Excitation energy:                                               9.141657 eV
  Excited state 4 (singlet, A)                                     [converged]
  Term symbol:  5 (1) A                                     R^2 =  1.06329e-11
  Excitation energy:                                               9.738206 eV
  Excited state 5 (singlet, A)                                     [converged]
  Term symbol:  6 (1) A                                     R^2 =  8.61393e-12
  Excitation energy:                                              10.158450 eV
  Excited state 6 (singlet, A)                                     [converged]
  Term symbol:  7 (1) A                                     R^2 =  6.31526e-11
  Excitation energy:                                              10.520841 eV
  Excited state 7 (singlet, A)                                     [converged]
  Term symbol:  8 (1) A                                     R^2 =  5.63876e-08
  Excitation energy:                                              11.433793 eV
  Excited state 8 (singlet, A)                                     [converged]
  Term symbol:  9 (1) A                                     R^2 =  5.89397e-08
  Excitation energy:                                              12.068213 eV
  Excited state 9 (singlet, A)                                     [converged]
  Term symbol:  10 (1) A                                    R^2 =  2.15384e-07
  Excitation energy:                                              12.346808 eV
  Excited state 10 (singlet, A)                                     [converged]
  Term symbol:  11 (1) A                                    R^2 =  6.76881e-07
  Excitation energy:                                              12.476714 eV
  Excitation energy:                                               0.220622 eV
  Excitation energy:                                               0.409914 eV
  Excitation energy:                                               0.189291 eV
  Excitation energy:                                               1.006463 eV
  Excitation energy:                                               0.785840 eV
  Excitation energy:                                               0.596549 eV
  Excitation energy:                                               1.426707 eV
  Excitation energy:                                               1.206084 eV
  Excitation energy:                                               1.016793 eV
  Excitation energy:                                               0.420244 eV
  Excitation energy:                                               1.789098 eV
  Excitation energy:                                               1.568476 eV
  Excitation energy:                                               1.379184 eV
  Excitation energy:                                               0.782635 eV
  Excitation energy:                                               0.362391 eV
  Excitation energy:                                               2.702050 eV
  Excitation energy:                                               2.481427 eV
  Excitation energy:                                               2.292136 eV
  Excitation energy:                                               1.695587 eV
  Excitation energy:                                               1.275343 eV
  Excitation energy:                                               0.912951 eV
  Excitation energy:                                               3.336470 eV
  Excitation energy:                                               3.115848 eV
  Excitation energy:                                               2.926556 eV
  Excitation energy:                                               2.330007 eV
  Excitation energy:                                               1.909763 eV
  Excitation energy:                                               1.547372 eV
  Excitation energy:                                               0.634421 eV
  Excitation energy:                                               3.615065 eV
  Excitation energy:                                               3.394443 eV
  Excitation energy:                                               3.205151 eV
  Excitation energy:                                               2.608602 eV
  Excitation energy:                                               2.188358 eV
  Excitation energy:                                               1.825967 eV
  Excitation energy:                                               0.913016 eV
  Excitation energy:                                               0.278595 eV
  Excitation energy:                                               3.744971 eV
  Excitation energy:                                               3.524348 eV
  Excitation energy:                                               3.335057 eV
  Excitation energy:                                               2.738508 eV
  Excitation energy:                                               2.318264 eV
  Excitation energy:                                               1.955873 eV
  Excitation energy:                                               1.042921 eV
  Excitation energy:                                               0.408501 eV
  Excitation energy:                                               0.129906 eV

                    Orbital Energies (a.u.)
 --------------------------------------------------------------

 Alpha MOs
 -- Occupied --
-11.2388 -11.2372  -1.0299  -0.7859  -0.6350  -0.5823  -0.4995  -0.3744

          Ground-State Mulliken Net Atomic Charges

     Atom                 Charge (a.u.)
  ----------------------------------------
      1 H                     0.052372
      2 C                    -0.104748
      3 H                     0.052382
      4 C                    -0.104757
      5 H                     0.052380
      6 H                     0.052370
  ----------------------------------------
  Sum of atomic charges =     0.000000

                    Cartesian Multipole Moments
 -----------------------------------------------------------------
    Charge (ESU x 10^10)
                -0.0000
    Dipole Moment (Debye)
         X      -0.0004      Y      -0.0005      Z       0.0082
       Tot       0.0082
    Quadrupole Moments (Debye-Ang)
        XX     -12.2443     XY      -0.1044     YY     -12.2594
        XZ       0.1433     YZ       0.1981     ZZ     -15.6097

 Total job time:  123.35s(wall), 369.22s(cpu)
        *  Thank you very much for using Q-Chem.  Have a nice day.  *
