 Q-Chem 5.4 (devel), Q-Chem, Inc., Pleasanton, CA (2021)
 Q-Chem 5.4.1 for Intel X86 EM64T Linux

User input:
--------------------------------------------------------------
$comment
generated from CCJob.Templates
$end

$rem
sym_ignore = true
method = adc(2)
ee_states = 10
basis = cc-pVDZ
mem_static = 1024
mem_total = 40000
adc_davidson_maxiter = 900
adc_davidson_conv = 6
adc_print = 3
adc_prop_es = true
adc_prop_es2es = true
adc_prop_tpa = true
molden_format = True
state_analysis = true
print_orbitals = 15
gen_scfman = false
fde_export_density = true
fde_details = 3
$end

$molecule
0 1
H -0.0348278765 -0.2442097827 0.0636489606
C -1.0765972949 -0.5242748755 -0.0023551776
H -1.313264467 -1.5767591607 -0.03572769259999999
C -2.043634118 0.3926884087 0.0061254933
H -1.8137616575 1.4459188338 0.0804456828
H -3.085977293 0.114931858 -0.0593381042
$end
--------------------------------------------------------------

             Standard Nuclear Orientation (Angstroms)
    I     Atom           X                Y                Z
 ----------------------------------------------------------------
    1      H      -0.0348278765    -0.2442097827     0.0636489606
    2      C      -1.0765972949    -0.5242748755    -0.0023551776
    3      H      -1.3132644670    -1.5767591607    -0.0357276926
    4      C      -2.0436341180     0.3926884087     0.0061254933
    5      H      -1.8137616575     1.4459188338     0.0804456828
    6      H      -3.0859772930     0.1149318580    -0.0593381042
 ----------------------------------------------------------------

   11     -78.0398382500      4.29E-09 Convergence criterion met
 Total energy in the final basis set = -78.03983825
  Excited state 1 (singlet, A)                                     [converged]
  Term symbol:  2 (1) A                                     R^2 =  1.54477e-13
  Excitation energy:                                               8.726062 eV
  Excited state 2 (singlet, A)                                     [converged]
  Term symbol:  3 (1) A                                     R^2 =  9.54581e-14
  Excitation energy:                                               9.060671 eV
  Excited state 3 (singlet, A)                                     [converged]
  Term symbol:  4 (1) A                                     R^2 =  1.75177e-13
  Excitation energy:                                               9.172661 eV
  Excited state 4 (singlet, A)                                     [converged]
  Term symbol:  5 (1) A                                     R^2 =  1.21818e-13
  Excitation energy:                                               9.836945 eV
  Excited state 5 (singlet, A)                                     [converged]
  Term symbol:  6 (1) A                                     R^2 =  1.28404e-13
  Excitation energy:                                              10.213216 eV
  Excited state 6 (singlet, A)                                     [converged]
  Term symbol:  7 (1) A                                     R^2 =  5.73442e-13
  Excitation energy:                                              10.536266 eV
  Excited state 7 (singlet, A)                                     [converged]
  Term symbol:  8 (1) A                                     R^2 =  2.01393e-11
  Excitation energy:                                              11.561999 eV
  Excited state 8 (singlet, A)                                     [converged]
  Term symbol:  9 (1) A                                     R^2 =  6.51466e-10
  Excitation energy:                                              12.164635 eV
  Excited state 9 (singlet, A)                                     [converged]
  Term symbol:  10 (1) A                                    R^2 =  1.16337e-08
  Excitation energy:                                              12.416218 eV
  Excited state 10 (singlet, A)                                     [converged]
  Term symbol:  11 (1) A                                    R^2 =  6.19474e-07
  Excitation energy:                                              12.651191 eV
  Excitation energy:                                               0.334609 eV
  Excitation energy:                                               0.446599 eV
  Excitation energy:                                               0.111990 eV
  Excitation energy:                                               1.110883 eV
  Excitation energy:                                               0.776274 eV
  Excitation energy:                                               0.664284 eV
  Excitation energy:                                               1.487154 eV
  Excitation energy:                                               1.152545 eV
  Excitation energy:                                               1.040555 eV
  Excitation energy:                                               0.376270 eV
  Excitation energy:                                               1.810204 eV
  Excitation energy:                                               1.475595 eV
  Excitation energy:                                               1.363605 eV
  Excitation energy:                                               0.699320 eV
  Excitation energy:                                               0.323050 eV
  Excitation energy:                                               2.835937 eV
  Excitation energy:                                               2.501328 eV
  Excitation energy:                                               2.389338 eV
  Excitation energy:                                               1.725054 eV
  Excitation energy:                                               1.348783 eV
  Excitation energy:                                               1.025733 eV
  Excitation energy:                                               3.438572 eV
  Excitation energy:                                               3.103963 eV
  Excitation energy:                                               2.991974 eV
  Excitation energy:                                               2.327689 eV
  Excitation energy:                                               1.951419 eV
  Excitation energy:                                               1.628369 eV
  Excitation energy:                                               0.602636 eV
  Excitation energy:                                               3.690156 eV
  Excitation energy:                                               3.355547 eV
  Excitation energy:                                               3.243557 eV
  Excitation energy:                                               2.579272 eV
  Excitation energy:                                               2.203002 eV
  Excitation energy:                                               1.879952 eV
  Excitation energy:                                               0.854219 eV
  Excitation energy:                                               0.251583 eV
  Excitation energy:                                               3.925129 eV
  Excitation energy:                                               3.590520 eV
  Excitation energy:                                               3.478530 eV
  Excitation energy:                                               2.814245 eV
  Excitation energy:                                               2.437975 eV
  Excitation energy:                                               2.114925 eV
  Excitation energy:                                               1.089192 eV
  Excitation energy:                                               0.486556 eV
  Excitation energy:                                               0.234973 eV

                    Orbital Energies (a.u.)
 --------------------------------------------------------------

 Alpha MOs
 -- Occupied --
-11.2350 -11.2333  -1.0324  -0.7900  -0.6412  -0.5821  -0.5047  -0.3740

          Ground-State Mulliken Net Atomic Charges

     Atom                 Charge (a.u.)
  ----------------------------------------
      1 H                     0.047971
      2 C                    -0.094302
      3 H                     0.047136
      4 C                    -0.095704
      5 H                     0.047217
      6 H                     0.047680
  ----------------------------------------
  Sum of atomic charges =     0.000000

                    Cartesian Multipole Moments
 -----------------------------------------------------------------
    Charge (ESU x 10^10)
                 0.0000
    Dipole Moment (Debye)
         X      -0.0033      Y      -0.0001      Z       0.0290
       Tot       0.0292
    Quadrupole Moments (Debye-Ang)
        XX     -12.2091     XY      -0.0566     YY     -12.2620
        XZ       0.1110     YZ       0.1408     ZZ     -15.5422

 Total job time:  89.12s(wall), 305.21s(cpu)
        *  Thank you very much for using Q-Chem.  Have a nice day.  *
