 Q-Chem 5.4 (devel), Q-Chem, Inc., Pleasanton, CA (2021)
 Q-Chem 5.4.1 for Intel X86 EM64T Linux

User input:
--------------------------------------------------------------
$comment
generated from CCJob.Templates
$end

$rem
sym_ignore = true
method = adc(2)
ee_states = 10
basis = cc-pVDZ
mem_static = 1024
mem_total = 40000
adc_davidson_maxiter = 900
adc_davidson_conv = 6
adc_print = 3
adc_prop_es = true
adc_prop_es2es = true
adc_prop_tpa = true
molden_format = True
state_analysis = true
print_orbitals = 15
gen_scfman = false
fde_export_density = true
fde_details = 3
$end

$molecule
0 1
H -0.05815222151501202 -0.2562997074065011 0.06280362492458341
C -1.0651457047372188 -0.5110115331335305 -0.0009408601701945318
H -1.3086467819029464 -1.629983078169293 -0.08028033891761072
C -2.0320091587396494 0.40723504056402626 0.008029720129417654
H -1.8289427291013822 1.425579275337597 0.079341883582971
H -3.1376965210080185 0.10710015389532164 -0.06311942837456339
$end
--------------------------------------------------------------

             Standard Nuclear Orientation (Angstroms)
    I     Atom           X                Y                Z
 ----------------------------------------------------------------
    1      H      -0.0581522215    -0.2562997074     0.0628036249
    2      C      -1.0651457047    -0.5110115331    -0.0009408602
    3      H      -1.3086467819    -1.6299830782    -0.0802803389
    4      C      -2.0320091587     0.4072350406     0.0080297201
    5      H      -1.8289427291     1.4255792753     0.0793418836
    6      H      -3.1376965210     0.1071001539    -0.0631194284
 ----------------------------------------------------------------

   11     -78.0319977464      3.09E-09 Convergence criterion met
 Total energy in the final basis set = -78.03199775
  Excited state 1 (singlet, A)                                     [converged]
  Term symbol:  2 (1) A                                     R^2 =  3.22739e-13
  Excitation energy:                                               8.732929 eV
  Excited state 2 (singlet, A)                                     [converged]
  Term symbol:  3 (1) A                                     R^2 =  1.21838e-13
  Excitation energy:                                               8.868584 eV
  Excited state 3 (singlet, A)                                     [converged]
  Term symbol:  4 (1) A                                     R^2 =  2.62192e-13
  Excitation energy:                                               9.064556 eV
  Excited state 4 (singlet, A)                                     [converged]
  Term symbol:  5 (1) A                                     R^2 =  3.64549e-13
  Excitation energy:                                               9.842591 eV
  Excited state 5 (singlet, A)                                     [converged]
  Term symbol:  6 (1) A                                     R^2 =  1.23558e-12
  Excitation energy:                                              10.138628 eV
  Excited state 6 (singlet, A)                                     [converged]
  Term symbol:  7 (1) A                                     R^2 =  2.83165e-12
  Excitation energy:                                              10.504297 eV
  Excited state 7 (singlet, A)                                     [converged]
  Term symbol:  8 (1) A                                     R^2 =  8.40727e-10
  Excitation energy:                                              11.328113 eV
  Excited state 8 (singlet, A)                                     [converged]
  Term symbol:  9 (1) A                                     R^2 =  7.13155e-08
  Excitation energy:                                              12.078315 eV
  Excited state 9 (singlet, A)                                     [converged]
  Term symbol:  10 (1) A                                    R^2 =  7.56090e-07
  Excitation energy:                                              12.339953 eV
  Excited state 10 (singlet, A)                                     [converged]
  Term symbol:  11 (1) A                                    R^2 =  3.17569e-07
  Excitation energy:                                              12.515670 eV
  Excitation energy:                                               0.135655 eV
  Excitation energy:                                               0.331627 eV
  Excitation energy:                                               0.195971 eV
  Excitation energy:                                               1.109662 eV
  Excitation energy:                                               0.974007 eV
  Excitation energy:                                               0.778035 eV
  Excitation energy:                                               1.405699 eV
  Excitation energy:                                               1.270044 eV
  Excitation energy:                                               1.074073 eV
  Excitation energy:                                               0.296037 eV
  Excitation energy:                                               1.771368 eV
  Excitation energy:                                               1.635712 eV
  Excitation energy:                                               1.439741 eV
  Excitation energy:                                               0.661706 eV
  Excitation energy:                                               0.365668 eV
  Excitation energy:                                               2.595184 eV
  Excitation energy:                                               2.459529 eV
  Excitation energy:                                               2.263557 eV
  Excitation energy:                                               1.485522 eV
  Excitation energy:                                               1.189485 eV
  Excitation energy:                                               0.823816 eV
  Excitation energy:                                               3.345386 eV
  Excitation energy:                                               3.209731 eV
  Excitation energy:                                               3.013759 eV
  Excitation energy:                                               2.235724 eV
  Excitation energy:                                               1.939687 eV
  Excitation energy:                                               1.574018 eV
  Excitation energy:                                               0.750202 eV
  Excitation energy:                                               3.607024 eV
  Excitation energy:                                               3.471368 eV
  Excitation energy:                                               3.275397 eV
  Excitation energy:                                               2.497362 eV
  Excitation energy:                                               2.201325 eV
  Excitation energy:                                               1.835656 eV
  Excitation energy:                                               1.011840 eV
  Excitation energy:                                               0.261638 eV
  Excitation energy:                                               3.782741 eV
  Excitation energy:                                               3.647085 eV
  Excitation energy:                                               3.451114 eV
  Excitation energy:                                               2.673079 eV
  Excitation energy:                                               2.377041 eV
  Excitation energy:                                               2.011373 eV
  Excitation energy:                                               1.187557 eV
  Excitation energy:                                               0.437355 eV
  Excitation energy:                                               0.175717 eV

                    Orbital Energies (a.u.)
 --------------------------------------------------------------

 Alpha MOs
 -- Occupied --
-11.2390 -11.2374  -1.0311  -0.7889  -0.6387  -0.5793  -0.4980  -0.3748

          Ground-State Mulliken Net Atomic Charges

     Atom                 Charge (a.u.)
  ----------------------------------------
      1 H                     0.038452
      2 C                    -0.099780
      3 H                     0.061368
      4 C                    -0.099920
      5 H                     0.038514
      6 H                     0.061365
  ----------------------------------------
  Sum of atomic charges =     0.000000

                    Cartesian Multipole Moments
 -----------------------------------------------------------------
    Charge (ESU x 10^10)
                -0.0000
    Dipole Moment (Debye)
         X       0.0569      Y       0.0598      Z       0.0064
       Tot       0.0828
    Quadrupole Moments (Debye-Ang)
        XX     -12.4290     XY      -0.1965     YY     -12.2726
        XZ       0.1462     YZ       0.1981     ZZ     -15.6074

 Total job time:  137.73s(wall), 412.17s(cpu)
        *  Thank you very much for using Q-Chem.  Have a nice day.  *
