 Q-Chem 5.4 (devel), Q-Chem, Inc., Pleasanton, CA (2021)
 Q-Chem 5.4.1 for Intel X86 EM64T Linux

User input:
--------------------------------------------------------------
$comment
generated from CCJob.Templates
$end

$rem
sym_ignore = true
method = adc(2)
ee_states = 10
basis = cc-pVDZ
mem_static = 1024
mem_total = 40000
adc_davidson_maxiter = 900
adc_davidson_conv = 6
adc_print = 3
adc_prop_es = true
adc_prop_es2es = true
adc_prop_tpa = true
molden_format = True
state_analysis = true
print_orbitals = 15
gen_scfman = false
fde_export_density = true
fde_details = 3
$end

$molecule
0 1
H -0.0348278765 -0.23420978269999998 0.0636489606
C -1.0765972949 -0.5242748755 -0.0023551776
H -1.313264467 -1.5767591607 -0.0757276926
C -2.043634118 0.3926884087 0.0061254933
H -1.8137616575 1.4459188338 0.0804456828
H -3.085977293 0.114931858 -0.0593381042
$end
--------------------------------------------------------------

             Standard Nuclear Orientation (Angstroms)
    I     Atom           X                Y                Z
 ----------------------------------------------------------------
    1      H      -0.0348278765    -0.2342097827     0.0636489606
    2      C      -1.0765972949    -0.5242748755    -0.0023551776
    3      H      -1.3132644670    -1.5767591607    -0.0757276926
    4      C      -2.0436341180     0.3926884087     0.0061254933
    5      H      -1.8137616575     1.4459188338     0.0804456828
    6      H      -3.0859772930     0.1149318580    -0.0593381042
 ----------------------------------------------------------------

   11     -78.0399029370      6.57E-09 Convergence criterion met
 Total energy in the final basis set = -78.03990294
  Excited state 1 (singlet, A)                                     [converged]
  Term symbol:  2 (1) A                                     R^2 =  2.91726e-13
  Excitation energy:                                               8.737893 eV
  Excited state 2 (singlet, A)                                     [converged]
  Term symbol:  3 (1) A                                     R^2 =  1.43130e-13
  Excitation energy:                                               9.059360 eV
  Excited state 3 (singlet, A)                                     [converged]
  Term symbol:  4 (1) A                                     R^2 =  2.16222e-13
  Excitation energy:                                               9.161587 eV
  Excited state 4 (singlet, A)                                     [converged]
  Term symbol:  5 (1) A                                     R^2 =  6.11248e-13
  Excitation energy:                                               9.829690 eV
  Excited state 5 (singlet, A)                                     [converged]
  Term symbol:  6 (1) A                                     R^2 =  1.91285e-13
  Excitation energy:                                              10.204903 eV
  Excited state 6 (singlet, A)                                     [converged]
  Term symbol:  7 (1) A                                     R^2 =  3.95375e-13
  Excitation energy:                                              10.529417 eV
  Excited state 7 (singlet, A)                                     [converged]
  Term symbol:  8 (1) A                                     R^2 =  1.04621e-10
  Excitation energy:                                              11.552009 eV
  Excited state 8 (singlet, A)                                     [converged]
  Term symbol:  9 (1) A                                     R^2 =  3.22014e-10
  Excitation energy:                                              12.169575 eV
  Excited state 9 (singlet, A)                                     [converged]
  Term symbol:  10 (1) A                                    R^2 =  2.94985e-09
  Excitation energy:                                              12.420874 eV
  Excited state 10 (singlet, A)                                     [converged]
  Term symbol:  11 (1) A                                    R^2 =  5.37445e-07
  Excitation energy:                                              12.643934 eV
  Excitation energy:                                               0.321468 eV
  Excitation energy:                                               0.423694 eV
  Excitation energy:                                               0.102227 eV
  Excitation energy:                                               1.091798 eV
  Excitation energy:                                               0.770330 eV
  Excitation energy:                                               0.668103 eV
  Excitation energy:                                               1.467010 eV
  Excitation energy:                                               1.145543 eV
  Excitation energy:                                               1.043316 eV
  Excitation energy:                                               0.375213 eV
  Excitation energy:                                               1.791524 eV
  Excitation energy:                                               1.470056 eV
  Excitation energy:                                               1.367830 eV
  Excitation energy:                                               0.699727 eV
  Excitation energy:                                               0.324514 eV
  Excitation energy:                                               2.814116 eV
  Excitation energy:                                               2.492649 eV
  Excitation energy:                                               2.390422 eV
  Excitation energy:                                               1.722319 eV
  Excitation energy:                                               1.347106 eV
  Excitation energy:                                               1.022592 eV
  Excitation energy:                                               3.431682 eV
  Excitation energy:                                               3.110214 eV
  Excitation energy:                                               3.007988 eV
  Excitation energy:                                               2.339884 eV
  Excitation energy:                                               1.964672 eV
  Excitation energy:                                               1.640158 eV
  Excitation energy:                                               0.617566 eV
  Excitation energy:                                               3.682982 eV
  Excitation energy:                                               3.361514 eV
  Excitation energy:                                               3.259288 eV
  Excitation energy:                                               2.591184 eV
  Excitation energy:                                               2.215972 eV
  Excitation energy:                                               1.891458 eV
  Excitation energy:                                               0.868866 eV
  Excitation energy:                                               0.251300 eV
  Excitation energy:                                               3.906042 eV
  Excitation energy:                                               3.584574 eV
  Excitation energy:                                               3.482347 eV
  Excitation energy:                                               2.814244 eV
  Excitation energy:                                               2.439031 eV
  Excitation energy:                                               2.114517 eV
  Excitation energy:                                               1.091925 eV
  Excitation energy:                                               0.474360 eV
  Excitation energy:                                               0.223060 eV

                    Orbital Energies (a.u.)
 --------------------------------------------------------------

 Alpha MOs
 -- Occupied --
-11.2352 -11.2335  -1.0323  -0.7892  -0.6414  -0.5812  -0.5047  -0.3740

          Ground-State Mulliken Net Atomic Charges

     Atom                 Charge (a.u.)
  ----------------------------------------
      1 H                     0.048847
      2 C                    -0.096003
      3 H                     0.048149
      4 C                    -0.095539
      5 H                     0.047086
      6 H                     0.047460
  ----------------------------------------
  Sum of atomic charges =     0.000000

                    Cartesian Multipole Moments
 -----------------------------------------------------------------
    Charge (ESU x 10^10)
                 0.0000
    Dipole Moment (Debye)
         X      -0.0046      Y       0.0035      Z       0.0007
       Tot       0.0058
    Quadrupole Moments (Debye-Ang)
        XX     -12.2194     XY      -0.0435     YY     -12.2616
        XZ       0.1532     YZ       0.1948     ZZ     -15.5449

 Total job time:  75.07s(wall), 199.43s(cpu)
        *  Thank you very much for using Q-Chem.  Have a nice day.  *
