 Q-Chem 5.4 (devel), Q-Chem, Inc., Pleasanton, CA (2021)
 Q-Chem 5.4.1 for Intel X86 EM64T Linux

User input:
--------------------------------------------------------------
$comment
generated from CCJob.Templates
$end

$rem
sym_ignore = true
method = adc(2)
ee_states = 10
basis = cc-pVDZ
mem_static = 1024
mem_total = 40000
adc_davidson_maxiter = 900
adc_davidson_conv = 6
adc_print = 3
adc_prop_es = true
adc_prop_es2es = true
adc_prop_tpa = true
molden_format = True
state_analysis = true
print_orbitals = 15
gen_scfman = false
fde_export_density = true
fde_details = 3
$end

$molecule
0 1
H -0.0348278765 -0.2442097827 0.0636489606
C -1.0765972949 -0.5242748755 -0.0023551776
H -1.323264467 -1.5767591607 -0.0757276926
C -2.043634118 0.3926884087 0.0061254933
H -1.8137616575 1.4459188338 0.0804456828
H -3.085977293 0.114931858 -0.0593381042
$end
--------------------------------------------------------------

             Standard Nuclear Orientation (Angstroms)
    I     Atom           X                Y                Z
 ----------------------------------------------------------------
    1      H      -0.0348278765    -0.2442097827     0.0636489606
    2      C      -1.0765972949    -0.5242748755    -0.0023551776
    3      H      -1.3232644670    -1.5767591607    -0.0757276926
    4      C      -2.0436341180     0.3926884087     0.0061254933
    5      H      -1.8137616575     1.4459188338     0.0804456828
    6      H      -3.0859772930     0.1149318580    -0.0593381042
 ----------------------------------------------------------------

   11     -78.0398863395      6.16E-09 Convergence criterion met
 Total energy in the final basis set = -78.03988634
  Excited state 1 (singlet, A)                                     [converged]
  Term symbol:  2 (1) A                                     R^2 =  5.34333e-14
  Excitation energy:                                               8.737880 eV
  Excited state 2 (singlet, A)                                     [converged]
  Term symbol:  3 (1) A                                     R^2 =  7.39939e-14
  Excitation energy:                                               9.058870 eV
  Excited state 3 (singlet, A)                                     [converged]
  Term symbol:  4 (1) A                                     R^2 =  8.61593e-14
  Excitation energy:                                               9.161851 eV
  Excited state 4 (singlet, A)                                     [converged]
  Term symbol:  5 (1) A                                     R^2 =  7.89442e-14
  Excitation energy:                                               9.830339 eV
  Excited state 5 (singlet, A)                                     [converged]
  Term symbol:  6 (1) A                                     R^2 =  5.48180e-14
  Excitation energy:                                              10.205800 eV
  Excited state 6 (singlet, A)                                     [converged]
  Term symbol:  7 (1) A                                     R^2 =  8.81980e-14
  Excitation energy:                                              10.530042 eV
  Excited state 7 (singlet, A)                                     [converged]
  Term symbol:  8 (1) A                                     R^2 =  6.85645e-13
  Excitation energy:                                              11.552102 eV
  Excited state 8 (singlet, A)                                     [converged]
  Term symbol:  9 (1) A                                     R^2 =  2.13886e-12
  Excitation energy:                                              12.169988 eV
  Excited state 9 (singlet, A)                                     [converged]
  Term symbol:  10 (1) A                                    R^2 =  7.54946e-11
  Excitation energy:                                              12.421225 eV
  Excited state 10 (singlet, A)                                     [converged]
  Term symbol:  11 (1) A                                    R^2 =  4.45129e-07
  Excitation energy:                                              12.644429 eV
  Excitation energy:                                               0.320991 eV
  Excitation energy:                                               0.423972 eV
  Excitation energy:                                               0.102981 eV
  Excitation energy:                                               1.092459 eV
  Excitation energy:                                               0.771468 eV
  Excitation energy:                                               0.668487 eV
  Excitation energy:                                               1.467921 eV
  Excitation energy:                                               1.146930 eV
  Excitation energy:                                               1.043949 eV
  Excitation energy:                                               0.375462 eV
  Excitation energy:                                               1.792162 eV
  Excitation energy:                                               1.471172 eV
  Excitation energy:                                               1.368191 eV
  Excitation energy:                                               0.699703 eV
  Excitation energy:                                               0.324241 eV
  Excitation energy:                                               2.814223 eV
  Excitation energy:                                               2.493232 eV
  Excitation energy:                                               2.390251 eV
  Excitation energy:                                               1.721764 eV
  Excitation energy:                                               1.346302 eV
  Excitation energy:                                               1.022061 eV
  Excitation energy:                                               3.432108 eV
  Excitation energy:                                               3.111117 eV
  Excitation energy:                                               3.008136 eV
  Excitation energy:                                               2.339649 eV
  Excitation energy:                                               1.964187 eV
  Excitation energy:                                               1.639946 eV
  Excitation energy:                                               0.617885 eV
  Excitation energy:                                               3.683345 eV
  Excitation energy:                                               3.362355 eV
  Excitation energy:                                               3.259373 eV
  Excitation energy:                                               2.590886 eV
  Excitation energy:                                               2.215424 eV
  Excitation energy:                                               1.891183 eV
  Excitation energy:                                               0.869122 eV
  Excitation energy:                                               0.251237 eV
  Excitation energy:                                               3.906549 eV
  Excitation energy:                                               3.585559 eV
  Excitation energy:                                               3.482577 eV
  Excitation energy:                                               2.814090 eV
  Excitation energy:                                               2.438628 eV
  Excitation energy:                                               2.114387 eV
  Excitation energy:                                               1.092326 eV
  Excitation energy:                                               0.474441 eV
  Excitation energy:                                               0.223204 eV

                    Orbital Energies (a.u.)
 --------------------------------------------------------------

 Alpha MOs
 -- Occupied --
-11.2352 -11.2335  -1.0323  -0.7892  -0.6415  -0.5812  -0.5047  -0.3740

          Ground-State Mulliken Net Atomic Charges

     Atom                 Charge (a.u.)
  ----------------------------------------
      1 H                     0.048593
      2 C                    -0.095796
      3 H                     0.048265
      4 C                    -0.095595
      5 H                     0.046979
      6 H                     0.047554
  ----------------------------------------
  Sum of atomic charges =     0.000000

                    Cartesian Multipole Moments
 -----------------------------------------------------------------
    Charge (ESU x 10^10)
                 0.0000
    Dipole Moment (Debye)
         X      -0.0037      Y       0.0042      Z       0.0016
       Tot       0.0059
    Quadrupole Moments (Debye-Ang)
        XX     -12.2019     XY      -0.0437     YY     -12.2817
        XZ       0.1536     YZ       0.1930     ZZ     -15.5444

 Total job time:  117.05s(wall), 360.52s(cpu)
        *  Thank you very much for using Q-Chem.  Have a nice day.  *
