 Q-Chem 5.4 (devel), Q-Chem, Inc., Pleasanton, CA (2021)
 Q-Chem 5.4.1 for Intel X86 EM64T Linux

User input:
--------------------------------------------------------------
$comment
generated from CCJob.Templates
$end

$rem
sym_ignore = true
method = adc(2)
ee_states = 10
basis = cc-pVDZ
mem_static = 1024
mem_total = 40000
adc_davidson_maxiter = 900
adc_davidson_conv = 6
adc_print = 3
adc_prop_es = true
adc_prop_es2es = true
adc_prop_tpa = true
molden_format = True
state_analysis = true
print_orbitals = 15
gen_scfman = false
fde_export_density = true
fde_details = 3
$end

$molecule
0 1
H -0.0348278765 -0.2442097827 0.0636489606
C -1.0765972949 -0.5242748755 -0.0023551776
H -1.313264467 -1.5767591607 -0.0757276926
C -2.043634118 0.3926884087 0.0061254933
H -1.8137616575 1.4459188338 0.0704456828
H -3.085977293 0.114931858 -0.0593381042
$end
--------------------------------------------------------------

             Standard Nuclear Orientation (Angstroms)
    I     Atom           X                Y                Z
 ----------------------------------------------------------------
    1      H      -0.0348278765    -0.2442097827     0.0636489606
    2      C      -1.0765972949    -0.5242748755    -0.0023551776
    3      H      -1.3132644670    -1.5767591607    -0.0757276926
    4      C      -2.0436341180     0.3926884087     0.0061254933
    5      H      -1.8137616575     1.4459188338     0.0704456828
    6      H      -3.0859772930     0.1149318580    -0.0593381042
 ----------------------------------------------------------------

   11     -78.0399208132      3.59E-09 Convergence criterion met
 Total energy in the final basis set = -78.03992081
  Excited state 1 (singlet, A)                                     [converged]
  Term symbol:  2 (1) A                                     R^2 =  3.25731e-14
  Excitation energy:                                               8.736519 eV
  Excited state 2 (singlet, A)                                     [converged]
  Term symbol:  3 (1) A                                     R^2 =  4.33386e-14
  Excitation energy:                                               9.055286 eV
  Excited state 3 (singlet, A)                                     [converged]
  Term symbol:  4 (1) A                                     R^2 =  7.43442e-14
  Excitation energy:                                               9.171524 eV
  Excited state 4 (singlet, A)                                     [converged]
  Term symbol:  5 (1) A                                     R^2 =  6.95932e-14
  Excitation energy:                                               9.834408 eV
  Excited state 5 (singlet, A)                                     [converged]
  Term symbol:  6 (1) A                                     R^2 =  2.10202e-13
  Excitation energy:                                              10.212829 eV
  Excited state 6 (singlet, A)                                     [converged]
  Term symbol:  7 (1) A                                     R^2 =  3.53187e-13
  Excitation energy:                                              10.536316 eV
  Excited state 7 (singlet, A)                                     [converged]
  Term symbol:  8 (1) A                                     R^2 =  1.22511e-11
  Excitation energy:                                              11.558348 eV
  Excited state 8 (singlet, A)                                     [converged]
  Term symbol:  9 (1) A                                     R^2 =  5.21260e-11
  Excitation energy:                                              12.165754 eV
  Excited state 9 (singlet, A)                                     [converged]
  Term symbol:  10 (1) A                                    R^2 =  2.01896e-09
  Excitation energy:                                              12.417450 eV
  Excited state 10 (singlet, A)                                     [converged]
  Term symbol:  11 (1) A                                    R^2 =  8.46684e-07
  Excitation energy:                                              12.647395 eV
  Excitation energy:                                               0.318767 eV
  Excitation energy:                                               0.435005 eV
  Excitation energy:                                               0.116238 eV
  Excitation energy:                                               1.097889 eV
  Excitation energy:                                               0.779122 eV
  Excitation energy:                                               0.662884 eV
  Excitation energy:                                               1.476309 eV
  Excitation energy:                                               1.157542 eV
  Excitation energy:                                               1.041305 eV
  Excitation energy:                                               0.378421 eV
  Excitation energy:                                               1.799797 eV
  Excitation energy:                                               1.481030 eV
  Excitation energy:                                               1.364792 eV
  Excitation energy:                                               0.701908 eV
  Excitation energy:                                               0.323488 eV
  Excitation energy:                                               2.821829 eV
  Excitation energy:                                               2.503062 eV
  Excitation energy:                                               2.386824 eV
  Excitation energy:                                               1.723940 eV
  Excitation energy:                                               1.345520 eV
  Excitation energy:                                               1.022032 eV
  Excitation energy:                                               3.429235 eV
  Excitation energy:                                               3.110468 eV
  Excitation energy:                                               2.994230 eV
  Excitation energy:                                               2.331346 eV
  Excitation energy:                                               1.952925 eV
  Excitation energy:                                               1.629438 eV
  Excitation energy:                                               0.607406 eV
  Excitation energy:                                               3.680931 eV
  Excitation energy:                                               3.362164 eV
  Excitation energy:                                               3.245926 eV
  Excitation energy:                                               2.583042 eV
  Excitation energy:                                               2.204622 eV
  Excitation energy:                                               1.881134 eV
  Excitation energy:                                               0.859102 eV
  Excitation energy:                                               0.251696 eV
  Excitation energy:                                               3.910876 eV
  Excitation energy:                                               3.592109 eV
  Excitation energy:                                               3.475871 eV
  Excitation energy:                                               2.812987 eV
  Excitation energy:                                               2.434566 eV
  Excitation energy:                                               2.111079 eV
  Excitation energy:                                               1.089047 eV
  Excitation energy:                                               0.481641 eV
  Excitation energy:                                               0.229945 eV

                    Orbital Energies (a.u.)
 --------------------------------------------------------------

 Alpha MOs
 -- Occupied --
-11.2351 -11.2334  -1.0323  -0.7899  -0.6412  -0.5820  -0.5046  -0.3740

          Ground-State Mulliken Net Atomic Charges

     Atom                 Charge (a.u.)
  ----------------------------------------
      1 H                     0.048119
      2 C                    -0.095211
      3 H                     0.047660
      4 C                    -0.095202
      5 H                     0.047012
      6 H                     0.047622
  ----------------------------------------
  Sum of atomic charges =     0.000000

                    Cartesian Multipole Moments
 -----------------------------------------------------------------
    Charge (ESU x 10^10)
                 0.0000
    Dipole Moment (Debye)
         X      -0.0015      Y       0.0025      Z      -0.0058
       Tot       0.0064
    Quadrupole Moments (Debye-Ang)
        XX     -12.2142     XY      -0.0601     YY     -12.2662
        XZ       0.1640     YZ       0.1812     ZZ     -15.5416

 Total job time:  80.76s(wall), 216.77s(cpu)
        *  Thank you very much for using Q-Chem.  Have a nice day.  *
