 Q-Chem 5.4 (devel), Q-Chem, Inc., Pleasanton, CA (2021)
 Q-Chem 5.4.1 for Intel X86 EM64T Linux

User input:
--------------------------------------------------------------
$comment
generated from CCJob.Templates
$end

$rem
sym_ignore = true
method = adc(2)
ee_states = 10
basis = cc-pVDZ
mem_static = 1024
mem_total = 40000
adc_davidson_maxiter = 900
adc_davidson_conv = 6
adc_print = 3
adc_prop_es = true
adc_prop_es2es = true
adc_prop_tpa = true
molden_format = True
state_analysis = true
print_orbitals = 15
gen_scfman = false
fde_export_density = true
fde_details = 3
$end

$molecule
0 1
H -0.021452763594430716 -0.2468489898924493 0.0631286571818246
C -1.0779103067999407 -0.5244211033001354 -0.002360460399848603
H -1.3013000687057819 -1.5931616002070805 -0.07570651438234645
C -2.044758624799935 0.3938405823998642 0.006612531900152107
H -1.8216056759057806 1.4623581332929205 0.08391211611765402
H -3.1010404110944347 0.11653949140754477 -0.06279974011817918
$end
--------------------------------------------------------------

             Standard Nuclear Orientation (Angstroms)
    I     Atom           X                Y                Z
 ----------------------------------------------------------------
    1      H      -0.0214527636    -0.2468489899     0.0631286572
    2      C      -1.0779103068    -0.5244211033    -0.0023604604
    3      H      -1.3013000687    -1.5931616002    -0.0757065144
    4      C      -2.0447586248     0.3938405824     0.0066125319
    5      H      -1.8216056759     1.4623581333     0.0839121161
    6      H      -3.1010404111     0.1165394914    -0.0627997401
 ----------------------------------------------------------------

   10     -78.0396506337      3.97E-09 Convergence criterion met
 Total energy in the final basis set = -78.03965063
  Excited state 1 (singlet, A)                                     [converged]
  Term symbol:  2 (1) A                                     R^2 =  8.51195e-11
  Excitation energy:                                               8.731347 eV
  Excited state 2 (singlet, A)                                     [converged]
  Term symbol:  3 (1) A                                     R^2 =  9.35960e-12
  Excitation energy:                                               8.952800 eV
  Excited state 3 (singlet, A)                                     [converged]
  Term symbol:  4 (1) A                                     R^2 =  1.44630e-11
  Excitation energy:                                               9.141610 eV
  Excited state 4 (singlet, A)                                     [converged]
  Term symbol:  5 (1) A                                     R^2 =  5.51604e-12
  Excitation energy:                                               9.738266 eV
  Excited state 5 (singlet, A)                                     [converged]
  Term symbol:  6 (1) A                                     R^2 =  2.55596e-10
  Excitation energy:                                              10.158414 eV
  Excited state 6 (singlet, A)                                     [converged]
  Term symbol:  7 (1) A                                     R^2 =  6.35303e-10
  Excitation energy:                                              10.520807 eV
  Excited state 7 (singlet, A)                                     [converged]
  Term symbol:  8 (1) A                                     R^2 =  2.56619e-07
  Excitation energy:                                              11.433897 eV
  Excited state 8 (singlet, A)                                     [converged]
  Term symbol:  9 (1) A                                     R^2 =  6.34624e-08
  Excitation energy:                                              12.068235 eV
  Excited state 9 (singlet, A)                                     [converged]
  Term symbol:  10 (1) A                                    R^2 =  3.35526e-07
  Excitation energy:                                              12.346772 eV
  Excited state 10 (singlet, A)                                     [converged]
  Term symbol:  11 (1) A                                    R^2 =  7.69406e-07
  Excitation energy:                                              12.476839 eV
  Excitation energy:                                               0.221453 eV
  Excitation energy:                                               0.410263 eV
  Excitation energy:                                               0.188810 eV
  Excitation energy:                                               1.006919 eV
  Excitation energy:                                               0.785466 eV
  Excitation energy:                                               0.596656 eV
  Excitation energy:                                               1.427067 eV
  Excitation energy:                                               1.205614 eV
  Excitation energy:                                               1.016804 eV
  Excitation energy:                                               0.420147 eV
  Excitation energy:                                               1.789460 eV
  Excitation energy:                                               1.568007 eV
  Excitation energy:                                               1.379197 eV
  Excitation energy:                                               0.782541 eV
  Excitation energy:                                               0.362393 eV
  Excitation energy:                                               2.702550 eV
  Excitation energy:                                               2.481097 eV
  Excitation energy:                                               2.292287 eV
  Excitation energy:                                               1.695631 eV
  Excitation energy:                                               1.275483 eV
  Excitation energy:                                               0.913090 eV
  Excitation energy:                                               3.336887 eV
  Excitation energy:                                               3.115434 eV
  Excitation energy:                                               2.926624 eV
  Excitation energy:                                               2.329968 eV
  Excitation energy:                                               1.909821 eV
  Excitation energy:                                               1.547428 eV
  Excitation energy:                                               0.634337 eV
  Excitation energy:                                               3.615425 eV
  Excitation energy:                                               3.393972 eV
  Excitation energy:                                               3.205162 eV
  Excitation energy:                                               2.608506 eV
  Excitation energy:                                               2.188359 eV
  Excitation energy:                                               1.825965 eV
  Excitation energy:                                               0.912875 eV
  Excitation energy:                                               0.278538 eV
  Excitation energy:                                               3.745492 eV
  Excitation energy:                                               3.524039 eV
  Excitation energy:                                               3.335229 eV
  Excitation energy:                                               2.738573 eV
  Excitation energy:                                               2.318425 eV
  Excitation energy:                                               1.956032 eV
  Excitation energy:                                               1.042942 eV
  Excitation energy:                                               0.408605 eV
  Excitation energy:                                               0.130067 eV

                    Orbital Energies (a.u.)
 --------------------------------------------------------------

 Alpha MOs
 -- Occupied --
-11.2388 -11.2372  -1.0299  -0.7859  -0.6350  -0.5823  -0.4995  -0.3744

          Ground-State Mulliken Net Atomic Charges

     Atom                 Charge (a.u.)
  ----------------------------------------
      1 H                     0.052372
      2 C                    -0.104744
      3 H                     0.052381
      4 C                    -0.104758
      5 H                     0.052380
      6 H                     0.052369
  ----------------------------------------
  Sum of atomic charges =     0.000000

                    Cartesian Multipole Moments
 -----------------------------------------------------------------
    Charge (ESU x 10^10)
                -0.0000
    Dipole Moment (Debye)
         X      -0.0000      Y       0.0000      Z       0.0000
       Tot       0.0000
    Quadrupole Moments (Debye-Ang)
        XX     -12.2454     XY      -0.1052     YY     -12.2595
        XZ       0.1561     YZ       0.1986     ZZ     -15.6097

 Total job time:  127.28s(wall), 378.91s(cpu)
        *  Thank you very much for using Q-Chem.  Have a nice day.  *
