 Q-Chem 5.4 (devel), Q-Chem, Inc., Pleasanton, CA (2021)
 Q-Chem 5.4.1 for Intel X86 EM64T Linux

User input:
--------------------------------------------------------------
$comment
generated from CCJob.Templates
$end

$rem
sym_ignore = true
method = adc(2)
ee_states = 10
basis = cc-pVDZ
mem_static = 1024
mem_total = 30000
adc_davidson_maxiter = 900
adc_davidson_conv = 6
adc_print = 3
adc_prop_es = true
adc_prop_es2es = true
adc_prop_tpa = true
molden_format = True
state_analysis = true
print_orbitals = 15
gen_scfman = false
fde_export_density = true
fde_details = 3
$end

$molecule
0 1
H -0.0348278765 -0.2442097827 0.0636489606
C -1.0765972949 -0.5242748755 -0.0023551776
H -1.308264467 -1.5767591607 -0.0757276926
C -2.043634118 0.3926884087 0.0061254933
H -1.8137616575 1.4459188338 0.0804456828
H -3.085977293 0.114931858 -0.0593381042
$end
--------------------------------------------------------------

             Standard Nuclear Orientation (Angstroms)
    I     Atom           X                Y                Z
 ----------------------------------------------------------------
    1      H      -0.0348278765    -0.2442097827     0.0636489606
    2      C      -1.0765972949    -0.5242748755    -0.0023551776
    3      H      -1.3082644670    -1.5767591607    -0.0757276926
    4      C      -2.0436341180     0.3926884087     0.0061254933
    5      H      -1.8137616575     1.4459188338     0.0804456828
    6      H      -3.0859772930     0.1149318580    -0.0593381042
 ----------------------------------------------------------------

   10     -78.0399375547      9.52E-09 Convergence criterion met
 Total energy in the final basis set = -78.03993755
  Excited state 1 (singlet, A)                                     [converged]
  Term symbol:  2 (1) A                                     R^2 =  8.58750e-14
  Excitation energy:                                               8.736754 eV
  Excited state 2 (singlet, A)                                     [converged]
  Term symbol:  3 (1) A                                     R^2 =  2.11195e-13
  Excitation energy:                                               9.051932 eV
  Excited state 3 (singlet, A)                                     [converged]
  Term symbol:  4 (1) A                                     R^2 =  1.66332e-13
  Excitation energy:                                               9.175091 eV
  Excited state 4 (singlet, A)                                     [converged]
  Term symbol:  5 (1) A                                     R^2 =  4.49779e-13
  Excitation energy:                                               9.834849 eV
  Excited state 5 (singlet, A)                                     [converged]
  Term symbol:  6 (1) A                                     R^2 =  3.11806e-13
  Excitation energy:                                              10.215176 eV
  Excited state 6 (singlet, A)                                     [converged]
  Term symbol:  7 (1) A                                     R^2 =  5.95607e-13
  Excitation energy:                                              10.538865 eV
  Excited state 7 (singlet, A)                                     [converged]
  Term symbol:  8 (1) A                                     R^2 =  7.18597e-11
  Excitation energy:                                              11.558919 eV
  Excited state 8 (singlet, A)                                     [converged]
  Term symbol:  9 (1) A                                     R^2 =  1.34898e-10
  Excitation energy:                                              12.162961 eV
  Excited state 9 (singlet, A)                                     [converged]
  Term symbol:  10 (1) A                                    R^2 =  1.55955e-09
  Excitation energy:                                              12.415188 eV
  Excited state 10 (singlet, A)                                     [converged]
  Term symbol:  11 (1) A                                    R^2 =  8.70859e-07
  Excitation energy:                                              12.646155 eV
  Excitation energy:                                               0.315177 eV
  Excitation energy:                                               0.438337 eV
  Excitation energy:                                               0.123159 eV
  Excitation energy:                                               1.098094 eV
  Excitation energy:                                               0.782917 eV
  Excitation energy:                                               0.659757 eV
  Excitation energy:                                               1.478421 eV
  Excitation energy:                                               1.163244 eV
  Excitation energy:                                               1.040085 eV
  Excitation energy:                                               0.380327 eV
  Excitation energy:                                               1.802110 eV
  Excitation energy:                                               1.486933 eV
  Excitation energy:                                               1.363773 eV
  Excitation energy:                                               0.704016 eV
  Excitation energy:                                               0.323689 eV
  Excitation energy:                                               2.822165 eV
  Excitation energy:                                               2.506988 eV
  Excitation energy:                                               2.383828 eV
  Excitation energy:                                               1.724071 eV
  Excitation energy:                                               1.343744 eV
  Excitation energy:                                               1.020055 eV
  Excitation energy:                                               3.426206 eV
  Excitation energy:                                               3.111029 eV
  Excitation energy:                                               2.987869 eV
  Excitation energy:                                               2.328112 eV
  Excitation energy:                                               1.947785 eV
  Excitation energy:                                               1.624096 eV
  Excitation energy:                                               0.604041 eV
  Excitation energy:                                               3.678433 eV
  Excitation energy:                                               3.363256 eV
  Excitation energy:                                               3.240096 eV
  Excitation energy:                                               2.580339 eV
  Excitation energy:                                               2.200012 eV
  Excitation energy:                                               1.876323 eV
  Excitation energy:                                               0.856268 eV
  Excitation energy:                                               0.252227 eV
  Excitation energy:                                               3.909400 eV
  Excitation energy:                                               3.594223 eV
  Excitation energy:                                               3.471063 eV
  Excitation energy:                                               2.811306 eV
  Excitation energy:                                               2.430979 eV
  Excitation energy:                                               2.107290 eV
  Excitation energy:                                               1.087235 eV
  Excitation energy:                                               0.483194 eV
  Excitation energy:                                               0.230967 eV

                    Orbital Energies (a.u.)
 --------------------------------------------------------------

 Alpha MOs
 -- Occupied --
-11.2351 -11.2334  -1.0323  -0.7901  -0.6410  -0.5823  -0.5045  -0.3740

          Ground-State Mulliken Net Atomic Charges

     Atom                 Charge (a.u.)
  ----------------------------------------
      1 H                     0.047882
      2 C                    -0.094815
      3 H                     0.047363
      4 C                    -0.095448
      5 H                     0.047299
      6 H                     0.047720
  ----------------------------------------
  Sum of atomic charges =     0.000000

                    Cartesian Multipole Moments
 -----------------------------------------------------------------
    Charge (ESU x 10^10)
                -0.0000
    Dipole Moment (Debye)
         X      -0.0008      Y       0.0005      Z       0.0010
       Tot       0.0014
    Quadrupole Moments (Debye-Ang)
        XX     -12.2190     XY      -0.0662     YY     -12.2614
        XZ       0.1522     YZ       0.1935     ZZ     -15.5395

 Total job time:  65.60s(wall), 209.64s(cpu)
        *  Thank you very much for using Q-Chem.  Have a nice day.  *
