 Q-Chem 5.4 (devel), Q-Chem, Inc., Pleasanton, CA (2021)
 Q-Chem 5.4.1 for Intel X86 EM64T Linux

User input:
--------------------------------------------------------------
$comment
generated from CCJob.Templates
$end

$rem
sym_ignore = true
method = adc(2)
ee_states = 10
basis = cc-pVDZ
mem_static = 1024
mem_total = 40000
adc_davidson_maxiter = 900
adc_davidson_conv = 6
adc_print = 3
adc_prop_es = true
adc_prop_es2es = true
adc_prop_tpa = true
molden_format = True
state_analysis = true
print_orbitals = 15
gen_scfman = false
fde_export_density = true
fde_details = 3
$end

$molecule
0 1
H -0.023024136451870958 -0.24898674705917193 0.09687092360611402
C -1.0761908258078343 -0.5222694540605082 -0.03659008013803228
H -1.3028151016300686 -1.5949033932735004 -0.04594904019222515
C -2.046477401790551 0.391695837161846 0.040789179610443926
H -1.8198975269713153 1.4643332823699942 0.050258105739697405
H -3.099664594252327 0.11841991655797243 -0.09246272625841108
$end
--------------------------------------------------------------

             Standard Nuclear Orientation (Angstroms)
    I     Atom           X                Y                Z
 ----------------------------------------------------------------
    1      H      -0.0230241365    -0.2489867471     0.0968709236
    2      C      -1.0761908258    -0.5222694541    -0.0365900801
    3      H      -1.3028151016    -1.5949033933    -0.0459490402
    4      C      -2.0464774018     0.3916958372     0.0407891796
    5      H      -1.8198975270     1.4643332824     0.0502581057
    6      H      -3.0996645943     0.1184199166    -0.0924627263
 ----------------------------------------------------------------

   11     -78.0377282872      1.88E-09 Convergence criterion met
 Total energy in the final basis set = -78.03772829
  Excited state 1 (singlet, A)                                     [converged]
  Term symbol:  2 (1) A                                     R^2 =  4.61440e-13
  Excitation energy:                                               8.686107 eV
  Excited state 2 (singlet, A)                                     [converged]
  Term symbol:  3 (1) A                                     R^2 =  4.48854e-13
  Excitation energy:                                               8.872861 eV
  Excited state 3 (singlet, A)                                     [converged]
  Term symbol:  4 (1) A                                     R^2 =  3.17212e-13
  Excitation energy:                                               9.160390 eV
  Excited state 4 (singlet, A)                                     [converged]
  Term symbol:  5 (1) A                                     R^2 =  4.94309e-13
  Excitation energy:                                               9.744922 eV
  Excited state 5 (singlet, A)                                     [converged]
  Term symbol:  6 (1) A                                     R^2 =  1.67681e-13
  Excitation energy:                                              10.129904 eV
  Excited state 6 (singlet, A)                                     [converged]
  Term symbol:  7 (1) A                                     R^2 =  5.15824e-13
  Excitation energy:                                              10.462967 eV
  Excited state 7 (singlet, A)                                     [converged]
  Term symbol:  8 (1) A                                     R^2 =  4.74039e-12
  Excitation energy:                                              11.403871 eV
  Excited state 8 (singlet, A)                                     [converged]
  Term symbol:  9 (1) A                                     R^2 =  4.49088e-08
  Excitation energy:                                              12.003251 eV
  Excited state 9 (singlet, A)                                     [converged]
  Term symbol:  10 (1) A                                    R^2 =  9.35957e-07
  Excitation energy:                                              12.316409 eV
  Excited state 10 (singlet, A)                                     [converged]
  Term symbol:  11 (1) A                                    R^2 =  8.58634e-08
  Excitation energy:                                              12.451197 eV
  Excitation energy:                                               0.186754 eV
  Excitation energy:                                               0.474283 eV
  Excitation energy:                                               0.287529 eV
  Excitation energy:                                               1.058815 eV
  Excitation energy:                                               0.872060 eV
  Excitation energy:                                               0.584531 eV
  Excitation energy:                                               1.443797 eV
  Excitation energy:                                               1.257042 eV
  Excitation energy:                                               0.969513 eV
  Excitation energy:                                               0.384982 eV
  Excitation energy:                                               1.776860 eV
  Excitation energy:                                               1.590105 eV
  Excitation energy:                                               1.302576 eV
  Excitation energy:                                               0.718045 eV
  Excitation energy:                                               0.333063 eV
  Excitation energy:                                               2.717764 eV
  Excitation energy:                                               2.531010 eV
  Excitation energy:                                               2.243481 eV
  Excitation energy:                                               1.658949 eV
  Excitation energy:                                               1.273967 eV
  Excitation energy:                                               0.940904 eV
  Excitation energy:                                               3.317144 eV
  Excitation energy:                                               3.130389 eV
  Excitation energy:                                               2.842860 eV
  Excitation energy:                                               2.258329 eV
  Excitation energy:                                               1.873347 eV
  Excitation energy:                                               1.540284 eV
  Excitation energy:                                               0.599380 eV
  Excitation energy:                                               3.630302 eV
  Excitation energy:                                               3.443548 eV
  Excitation energy:                                               3.156019 eV
  Excitation energy:                                               2.571487 eV
  Excitation energy:                                               2.186505 eV
  Excitation energy:                                               1.853442 eV
  Excitation energy:                                               0.912538 eV
  Excitation energy:                                               0.313158 eV
  Excitation energy:                                               3.765090 eV
  Excitation energy:                                               3.578336 eV
  Excitation energy:                                               3.290807 eV
  Excitation energy:                                               2.706275 eV
  Excitation energy:                                               2.321293 eV
  Excitation energy:                                               1.988230 eV
  Excitation energy:                                               1.047326 eV
  Excitation energy:                                               0.447946 eV
  Excitation energy:                                               0.134788 eV

                    Orbital Energies (a.u.)
 --------------------------------------------------------------

 Alpha MOs
 -- Occupied --
-11.2397 -11.2381  -1.0297  -0.7854  -0.6340  -0.5810  -0.4984  -0.3747

          Ground-State Mulliken Net Atomic Charges

     Atom                 Charge (a.u.)
  ----------------------------------------
      1 H                     0.053411
      2 C                    -0.106821
      3 H                     0.053406
      4 C                    -0.106806
      5 H                     0.053403
      6 H                     0.053407
  ----------------------------------------
  Sum of atomic charges =     0.000000

                    Cartesian Multipole Moments
 -----------------------------------------------------------------
    Charge (ESU x 10^10)
                -0.0000
    Dipole Moment (Debye)
         X      -0.0001      Y       0.0000      Z       0.0002
       Tot       0.0002
    Quadrupole Moments (Debye-Ang)
        XX     -12.2822     XY      -0.1055     YY     -12.2718
        XZ       0.2843     YZ       0.0740     ZZ     -15.6125

 Total job time:  142.37s(wall), 437.44s(cpu)
        *  Thank you very much for using Q-Chem.  Have a nice day.  *
