 Q-Chem 5.4 (devel), Q-Chem, Inc., Pleasanton, CA (2021)
 Q-Chem 5.4.1 for Intel X86 EM64T Linux

User input:
--------------------------------------------------------------
$comment
generated from CCJob.Templates
$end

$rem
sym_ignore = true
method = adc(2)
ee_states = 10
basis = cc-pVDZ
mem_static = 1024
mem_total = 40000
adc_davidson_maxiter = 900
adc_davidson_conv = 6
adc_print = 3
adc_prop_es = true
adc_prop_es2es = true
adc_prop_tpa = true
molden_format = True
state_analysis = true
print_orbitals = 15
gen_scfman = false
fde_export_density = true
fde_details = 3
$end

$molecule
0 1
H -0.019694130997638302 -0.24645580173066287 0.06524765733925746
C -1.078447254974241 -0.523907739133845 -0.0023582083984355798
H -1.3016296168389239 -1.5949226728114634 -0.07782985054353589
C -2.0442240166258383 0.3933320622339295 0.006605127898429077
H -1.8210809557611878 1.4643573939110577 0.08205647604349686
H -3.102986135701977 0.115891399230776 -0.06092198803919504
$end
--------------------------------------------------------------

             Standard Nuclear Orientation (Angstroms)
    I     Atom           X                Y                Z
 ----------------------------------------------------------------
    1      H      -0.0196941310    -0.2464558017     0.0652476573
    2      C      -1.0784472550    -0.5239077391    -0.0023582084
    3      H      -1.3016296168    -1.5949226728    -0.0778298505
    4      C      -2.0442240166     0.3933320622     0.0066051279
    5      H      -1.8210809558     1.4643573939     0.0820564760
    6      H      -3.1029861357     0.1158913992    -0.0609219880
 ----------------------------------------------------------------

   10     -78.0395485014      4.61E-09 Convergence criterion met
 Total energy in the final basis set = -78.03954850
  Excited state 1 (singlet, A)                                     [converged]
  Term symbol:  2 (1) A                                     R^2 =  2.18157e-10
  Excitation energy:                                               8.745236 eV
  Excited state 2 (singlet, A)                                     [converged]
  Term symbol:  3 (1) A                                     R^2 =  2.01081e-11
  Excitation energy:                                               8.942097 eV
  Excited state 3 (singlet, A)                                     [converged]
  Term symbol:  4 (1) A                                     R^2 =  3.01439e-11
  Excitation energy:                                               9.140491 eV
  Excited state 4 (singlet, A)                                     [converged]
  Term symbol:  5 (1) A                                     R^2 =  1.51849e-11
  Excitation energy:                                               9.725358 eV
  Excited state 5 (singlet, A)                                     [converged]
  Term symbol:  6 (1) A                                     R^2 =  7.78768e-11
  Excitation energy:                                              10.157035 eV
  Excited state 6 (singlet, A)                                     [converged]
  Term symbol:  7 (1) A                                     R^2 =  4.67531e-10
  Excitation energy:                                              10.530204 eV
  Excited state 7 (singlet, A)                                     [converged]
  Term symbol:  8 (1) A                                     R^2 =  7.66950e-07
  Excitation energy:                                              11.407959 eV
  Excited state 8 (singlet, A)                                     [converged]
  Term symbol:  9 (1) A                                     R^2 =  1.73682e-07
  Excitation energy:                                              12.067083 eV
  Excited state 9 (singlet, A)                                     [converged]
  Term symbol:  10 (1) A                                    R^2 =  5.19158e-07
  Excitation energy:                                              12.348465 eV
  Excited state 10 (singlet, A)                                     [converged]
  Term symbol:  11 (1) A                                    R^2 =  6.23673e-07
  Excitation energy:                                              12.442015 eV
  Excitation energy:                                               0.196861 eV
  Excitation energy:                                               0.395255 eV
  Excitation energy:                                               0.198394 eV
  Excitation energy:                                               0.980122 eV
  Excitation energy:                                               0.783261 eV
  Excitation energy:                                               0.584867 eV
  Excitation energy:                                               1.411799 eV
  Excitation energy:                                               1.214938 eV
  Excitation energy:                                               1.016545 eV
  Excitation energy:                                               0.431678 eV
  Excitation energy:                                               1.784968 eV
  Excitation energy:                                               1.588107 eV
  Excitation energy:                                               1.389713 eV
  Excitation energy:                                               0.804846 eV
  Excitation energy:                                               0.373169 eV
  Excitation energy:                                               2.662723 eV
  Excitation energy:                                               2.465861 eV
  Excitation energy:                                               2.267468 eV
  Excitation energy:                                               1.682601 eV
  Excitation energy:                                               1.250923 eV
  Excitation energy:                                               0.877754 eV
  Excitation energy:                                               3.321847 eV
  Excitation energy:                                               3.124986 eV
  Excitation energy:                                               2.926592 eV
  Excitation energy:                                               2.341725 eV
  Excitation energy:                                               1.910048 eV
  Excitation energy:                                               1.536879 eV
  Excitation energy:                                               0.659124 eV
  Excitation energy:                                               3.603229 eV
  Excitation energy:                                               3.406368 eV
  Excitation energy:                                               3.207974 eV
  Excitation energy:                                               2.623107 eV
  Excitation energy:                                               2.191429 eV
  Excitation energy:                                               1.818261 eV
  Excitation energy:                                               0.940506 eV
  Excitation energy:                                               0.281382 eV
  Excitation energy:                                               3.696779 eV
  Excitation energy:                                               3.499918 eV
  Excitation energy:                                               3.301524 eV
  Excitation energy:                                               2.716657 eV
  Excitation energy:                                               2.284980 eV
  Excitation energy:                                               1.911811 eV
  Excitation energy:                                               1.034056 eV
  Excitation energy:                                               0.374932 eV
  Excitation energy:                                               0.093550 eV

                    Orbital Energies (a.u.)
 --------------------------------------------------------------

 Alpha MOs
 -- Occupied --
-11.2391 -11.2375  -1.0301  -0.7848  -0.6344  -0.5824  -0.4985  -0.3749

          Ground-State Mulliken Net Atomic Charges

     Atom                 Charge (a.u.)
  ----------------------------------------
      1 H                     0.052983
      2 C                    -0.105972
      3 H                     0.052994
      4 C                    -0.105978
      5 H                     0.052992
      6 H                     0.052981
  ----------------------------------------
  Sum of atomic charges =     0.000000

                    Cartesian Multipole Moments
 -----------------------------------------------------------------
    Charge (ESU x 10^10)
                -0.0000
    Dipole Moment (Debye)
         X      -0.0000      Y       0.0000      Z       0.0000
       Tot       0.0000
    Quadrupole Moments (Debye-Ang)
        XX     -12.2497     XY      -0.1037     YY     -12.2636
        XZ       0.1562     YZ       0.1987     ZZ     -15.6155

 Total job time:  118.83s(wall), 363.87s(cpu)
        *  Thank you very much for using Q-Chem.  Have a nice day.  *
