 Q-Chem 5.4 (devel), Q-Chem, Inc., Pleasanton, CA (2021)
 Q-Chem 5.4.1 for Intel X86 EM64T Linux

User input:
--------------------------------------------------------------
$comment
generated from CCJob.Templates
$end

$rem
sym_ignore = true
method = adc(2)
ee_states = 10
basis = cc-pVDZ
mem_static = 1024
mem_total = 40000
adc_davidson_maxiter = 900
adc_davidson_conv = 6
adc_print = 3
adc_prop_es = true
adc_prop_es2es = true
adc_prop_tpa = true
molden_format = True
state_analysis = true
print_orbitals = 15
gen_scfman = false
fde_export_density = true
fde_details = 3
$end

$molecule
0 1
H -0.0348278765 -0.2442097827 0.0636489606
C -1.0765972949 -0.5242748755 -0.0023551776
H -1.313264467 -1.5767591607 -0.0757276926
C -2.043634118 0.3926884087 0.0061254933
H -1.8137616575 1.4559188338 0.0804456828
H -3.085977293 0.114931858 -0.0593381042
$end
--------------------------------------------------------------

             Standard Nuclear Orientation (Angstroms)
    I     Atom           X                Y                Z
 ----------------------------------------------------------------
    1      H      -0.0348278765    -0.2442097827     0.0636489606
    2      C      -1.0765972949    -0.5242748755    -0.0023551776
    3      H      -1.3132644670    -1.5767591607    -0.0757276926
    4      C      -2.0436341180     0.3926884087     0.0061254933
    5      H      -1.8137616575     1.4559188338     0.0804456828
    6      H      -3.0859772930     0.1149318580    -0.0593381042
 ----------------------------------------------------------------

   11     -78.0399089668      8.10E-09 Convergence criterion met
 Total energy in the final basis set = -78.03990897
  Excited state 1 (singlet, A)                                     [converged]
  Term symbol:  2 (1) A                                     R^2 =  4.26064e-13
  Excitation energy:                                               8.737649 eV
  Excited state 2 (singlet, A)                                     [converged]
  Term symbol:  3 (1) A                                     R^2 =  2.46212e-13
  Excitation energy:                                               9.039426 eV
  Excited state 3 (singlet, A)                                     [converged]
  Term symbol:  4 (1) A                                     R^2 =  7.04220e-13
  Excitation energy:                                               9.162994 eV
  Excited state 4 (singlet, A)                                     [converged]
  Term symbol:  5 (1) A                                     R^2 =  6.08616e-13
  Excitation energy:                                               9.817023 eV
  Excited state 5 (singlet, A)                                     [converged]
  Term symbol:  6 (1) A                                     R^2 =  3.23582e-13
  Excitation energy:                                              10.203628 eV
  Excited state 6 (singlet, A)                                     [converged]
  Term symbol:  7 (1) A                                     R^2 =  5.58936e-13
  Excitation energy:                                              10.530591 eV
  Excited state 7 (singlet, A)                                     [converged]
  Term symbol:  8 (1) A                                     R^2 =  1.33532e-11
  Excitation energy:                                              11.534121 eV
  Excited state 8 (singlet, A)                                     [converged]
  Term symbol:  9 (1) A                                     R^2 =  4.94288e-11
  Excitation energy:                                              12.153398 eV
  Excited state 9 (singlet, A)                                     [converged]
  Term symbol:  10 (1) A                                    R^2 =  5.31022e-10
  Excitation energy:                                              12.406771 eV
  Excited state 10 (singlet, A)                                     [converged]
  Term symbol:  11 (1) A                                    R^2 =  6.96305e-07
  Excitation energy:                                              12.616483 eV
  Excitation energy:                                               0.301778 eV
  Excitation energy:                                               0.425345 eV
  Excitation energy:                                               0.123567 eV
  Excitation energy:                                               1.079374 eV
  Excitation energy:                                               0.777597 eV
  Excitation energy:                                               0.654029 eV
  Excitation energy:                                               1.465979 eV
  Excitation energy:                                               1.164202 eV
  Excitation energy:                                               1.040634 eV
  Excitation energy:                                               0.386605 eV
  Excitation energy:                                               1.792943 eV
  Excitation energy:                                               1.491165 eV
  Excitation energy:                                               1.367597 eV
  Excitation energy:                                               0.713568 eV
  Excitation energy:                                               0.326963 eV
  Excitation energy:                                               2.796472 eV
  Excitation energy:                                               2.494694 eV
  Excitation energy:                                               2.371127 eV
  Excitation energy:                                               1.717097 eV
  Excitation energy:                                               1.330493 eV
  Excitation energy:                                               1.003529 eV
  Excitation energy:                                               3.415749 eV
  Excitation energy:                                               3.113971 eV
  Excitation energy:                                               2.990404 eV
  Excitation energy:                                               2.336375 eV
  Excitation energy:                                               1.949770 eV
  Excitation energy:                                               1.622806 eV
  Excitation energy:                                               0.619277 eV
  Excitation energy:                                               3.669123 eV
  Excitation energy:                                               3.367345 eV
  Excitation energy:                                               3.243778 eV
  Excitation energy:                                               2.589748 eV
  Excitation energy:                                               2.203143 eV
  Excitation energy:                                               1.876180 eV
  Excitation energy:                                               0.872651 eV
  Excitation energy:                                               0.253374 eV
  Excitation energy:                                               3.878834 eV
  Excitation energy:                                               3.577057 eV
  Excitation energy:                                               3.453489 eV
  Excitation energy:                                               2.799460 eV
  Excitation energy:                                               2.412855 eV
  Excitation energy:                                               2.085892 eV
  Excitation energy:                                               1.082362 eV
  Excitation energy:                                               0.463085 eV
  Excitation energy:                                               0.209712 eV

                    Orbital Energies (a.u.)
 --------------------------------------------------------------

 Alpha MOs
 -- Occupied --
-11.2358 -11.2339  -1.0320  -0.7889  -0.6403  -0.5818  -0.5038  -0.3741

          Ground-State Mulliken Net Atomic Charges

     Atom                 Charge (a.u.)
  ----------------------------------------
      1 H                     0.048271
      2 C                    -0.093531
      3 H                     0.047841
      4 C                    -0.100468
      5 H                     0.049881
      6 H                     0.048007
  ----------------------------------------
  Sum of atomic charges =     0.000000

                    Cartesian Multipole Moments
 -----------------------------------------------------------------
    Charge (ESU x 10^10)
                -0.0000
    Dipole Moment (Debye)
         X      -0.0024      Y      -0.0030      Z       0.0005
       Tot       0.0038
    Quadrupole Moments (Debye-Ang)
        XX     -12.2166     XY      -0.0517     YY     -12.2687
        XZ       0.1542     YZ       0.1933     ZZ     -15.5534

 Total job time:  68.19s(wall), 185.01s(cpu)
        *  Thank you very much for using Q-Chem.  Have a nice day.  *
