 Q-Chem 5.4 (devel), Q-Chem, Inc., Pleasanton, CA (2021)
 Q-Chem 5.4.1 for Intel X86 EM64T Linux

User input:
--------------------------------------------------------------
$comment
generated from CCJob.Templates
$end

$rem
sym_ignore = true
method = adc(2)
ee_states = 10
basis = cc-pVDZ
mem_static = 1024
mem_total = 30000
adc_davidson_maxiter = 900
adc_davidson_conv = 6
adc_print = 3
adc_prop_es = true
adc_prop_es2es = true
adc_prop_tpa = true
molden_format = True
state_analysis = true
print_orbitals = 15
gen_scfman = false
fde_export_density = true
fde_details = 3
$end

$molecule
0 1
H -0.0348278765 -0.2442097827 0.0636489606
C -1.0765972949 -0.5242748755 -0.0023551776
H -1.313264467 -1.5767591607 -0.0807276926
C -2.043634118 0.3926884087 0.0061254933
H -1.8137616575 1.4459188338 0.0804456828
H -3.085977293 0.114931858 -0.0593381042
$end
--------------------------------------------------------------

             Standard Nuclear Orientation (Angstroms)
    I     Atom           X                Y                Z
 ----------------------------------------------------------------
    1      H      -0.0348278765    -0.2442097827     0.0636489606
    2      C      -1.0765972949    -0.5242748755    -0.0023551776
    3      H      -1.3132644670    -1.5767591607    -0.0807276926
    4      C      -2.0436341180     0.3926884087     0.0061254933
    5      H      -1.8137616575     1.4459188338     0.0804456828
    6      H      -3.0859772930     0.1149318580    -0.0593381042
 ----------------------------------------------------------------

   11     -78.0399268736      3.03E-09 Convergence criterion met
 Total energy in the final basis set = -78.03992687
  Excited state 1 (singlet, A)                                     [converged]
  Term symbol:  2 (1) A                                     R^2 =  2.18233e-13
  Excitation energy:                                               8.737052 eV
  Excited state 2 (singlet, A)                                     [converged]
  Term symbol:  3 (1) A                                     R^2 =  1.35947e-13
  Excitation energy:                                               9.054160 eV
  Excited state 3 (singlet, A)                                     [converged]
  Term symbol:  4 (1) A                                     R^2 =  1.60286e-13
  Excitation energy:                                               9.170307 eV
  Excited state 4 (singlet, A)                                     [converged]
  Term symbol:  5 (1) A                                     R^2 =  1.67476e-13
  Excitation energy:                                               9.832814 eV
  Excited state 5 (singlet, A)                                     [converged]
  Term symbol:  6 (1) A                                     R^2 =  1.39961e-13
  Excitation energy:                                              10.211712 eV
  Excited state 6 (singlet, A)                                     [converged]
  Term symbol:  7 (1) A                                     R^2 =  3.27252e-13
  Excitation energy:                                              10.535486 eV
  Excited state 7 (singlet, A)                                     [converged]
  Term symbol:  8 (1) A                                     R^2 =  1.41901e-10
  Excitation energy:                                              11.556105 eV
  Excited state 8 (singlet, A)                                     [converged]
  Term symbol:  9 (1) A                                     R^2 =  1.24778e-10
  Excitation energy:                                              12.165130 eV
  Excited state 9 (singlet, A)                                     [converged]
  Term symbol:  10 (1) A                                    R^2 =  2.76375e-09
  Excitation energy:                                              12.416899 eV
  Excited state 10 (singlet, A)                                     [converged]
  Term symbol:  11 (1) A                                    R^2 =  8.08398e-07
  Excitation energy:                                              12.644877 eV
  Excitation energy:                                               0.317107 eV
  Excitation energy:                                               0.433254 eV
  Excitation energy:                                               0.116147 eV
  Excitation energy:                                               1.095761 eV
  Excitation energy:                                               0.778654 eV
  Excitation energy:                                               0.662507 eV
  Excitation energy:                                               1.474660 eV
  Excitation energy:                                               1.157553 eV
  Excitation energy:                                               1.041406 eV
  Excitation energy:                                               0.378899 eV
  Excitation energy:                                               1.798433 eV
  Excitation energy:                                               1.481326 eV
  Excitation energy:                                               1.365179 eV
  Excitation energy:                                               0.702672 eV
  Excitation energy:                                               0.323773 eV
  Excitation energy:                                               2.819052 eV
  Excitation energy:                                               2.501945 eV
  Excitation energy:                                               2.385798 eV
  Excitation energy:                                               1.723291 eV
  Excitation energy:                                               1.344392 eV
  Excitation energy:                                               1.020619 eV
  Excitation energy:                                               3.428077 eV
  Excitation energy:                                               3.110970 eV
  Excitation energy:                                               2.994823 eV
  Excitation energy:                                               2.332316 eV
  Excitation energy:                                               1.953418 eV
  Excitation energy:                                               1.629644 eV
  Excitation energy:                                               0.609025 eV
  Excitation energy:                                               3.679847 eV
  Excitation energy:                                               3.362740 eV
  Excitation energy:                                               3.246593 eV
  Excitation energy:                                               2.584085 eV
  Excitation energy:                                               2.205187 eV
  Excitation energy:                                               1.881413 eV
  Excitation energy:                                               0.860795 eV
  Excitation energy:                                               0.251769 eV
  Excitation energy:                                               3.907824 eV
  Excitation energy:                                               3.590717 eV
  Excitation energy:                                               3.474570 eV
  Excitation energy:                                               2.812063 eV
  Excitation energy:                                               2.433164 eV
  Excitation energy:                                               2.109391 eV
  Excitation energy:                                               1.088772 eV
  Excitation energy:                                               0.479747 eV
  Excitation energy:                                               0.227977 eV

                    Orbital Energies (a.u.)
 --------------------------------------------------------------

 Alpha MOs
 -- Occupied --
-11.2351 -11.2335  -1.0323  -0.7897  -0.6411  -0.5819  -0.5046  -0.3740

          Ground-State Mulliken Net Atomic Charges

     Atom                 Charge (a.u.)
  ----------------------------------------
      1 H                     0.048142
      2 C                    -0.095302
      3 H                     0.047759
      4 C                    -0.095459
      5 H                     0.047193
      6 H                     0.047666
  ----------------------------------------
  Sum of atomic charges =     0.000000

                    Cartesian Multipole Moments
 -----------------------------------------------------------------
    Charge (ESU x 10^10)
                -0.0000
    Dipole Moment (Debye)
         X      -0.0017      Y       0.0021      Z      -0.0023
       Tot       0.0036
    Quadrupole Moments (Debye-Ang)
        XX     -12.2137     XY      -0.0591     YY     -12.2693
        XZ       0.1579     YZ       0.1999     ZZ     -15.5408

 Total job time:  78.49s(wall), 277.43s(cpu)
        *  Thank you very much for using Q-Chem.  Have a nice day.  *
