 Q-Chem 5.4 (devel), Q-Chem, Inc., Pleasanton, CA (2021)
 Q-Chem 5.4.1 for Intel X86 EM64T Linux

User input:
--------------------------------------------------------------
$comment
generated from CCJob.Templates
$end

$rem
sym_ignore = true
method = adc(2)
ee_states = 10
basis = cc-pVDZ
mem_static = 1024
mem_total = 30000
adc_davidson_maxiter = 900
adc_davidson_conv = 6
adc_print = 3
adc_prop_es = true
adc_prop_es2es = true
adc_prop_tpa = true
molden_format = True
state_analysis = true
print_orbitals = 15
gen_scfman = false
fde_export_density = true
fde_details = 3
$end

$molecule
0 1
H -0.0348278765 -0.2442097827 0.0586489606
C -1.0765972949 -0.5242748755 -0.0023551776
H -1.313264467 -1.5767591607 -0.0757276926
C -2.043634118 0.3926884087 0.0061254933
H -1.8137616575 1.4459188338 0.0804456828
H -3.085977293 0.114931858 -0.0593381042
$end
--------------------------------------------------------------

             Standard Nuclear Orientation (Angstroms)
    I     Atom           X                Y                Z
 ----------------------------------------------------------------
    1      H      -0.0348278765    -0.2442097827     0.0586489606
    2      C      -1.0765972949    -0.5242748755    -0.0023551776
    3      H      -1.3132644670    -1.5767591607    -0.0757276926
    4      C      -2.0436341180     0.3926884087     0.0061254933
    5      H      -1.8137616575     1.4459188338     0.0804456828
    6      H      -3.0859772930     0.1149318580    -0.0593381042
 ----------------------------------------------------------------

   10     -78.0399252977      9.84E-09 Convergence criterion met
 Total energy in the final basis set = -78.03992530
  Excited state 1 (singlet, A)                                     [converged]
  Term symbol:  2 (1) A                                     R^2 =  1.06390e-13
  Excitation energy:                                               8.736896 eV
  Excited state 2 (singlet, A)                                     [converged]
  Term symbol:  3 (1) A                                     R^2 =  2.14528e-13
  Excitation energy:                                               9.054728 eV
  Excited state 3 (singlet, A)                                     [converged]
  Term symbol:  4 (1) A                                     R^2 =  1.78365e-13
  Excitation energy:                                               9.171171 eV
  Excited state 4 (singlet, A)                                     [converged]
  Term symbol:  5 (1) A                                     R^2 =  1.45404e-13
  Excitation energy:                                               9.833855 eV
  Excited state 5 (singlet, A)                                     [converged]
  Term symbol:  6 (1) A                                     R^2 =  1.52743e-13
  Excitation energy:                                              10.212496 eV
  Excited state 6 (singlet, A)                                     [converged]
  Term symbol:  7 (1) A                                     R^2 =  6.18778e-13
  Excitation energy:                                              10.536099 eV
  Excited state 7 (singlet, A)                                     [converged]
  Term symbol:  8 (1) A                                     R^2 =  1.33732e-11
  Excitation energy:                                              11.557535 eV
  Excited state 8 (singlet, A)                                     [converged]
  Term symbol:  9 (1) A                                     R^2 =  1.61894e-10
  Excitation energy:                                              12.165520 eV
  Excited state 9 (singlet, A)                                     [converged]
  Term symbol:  10 (1) A                                    R^2 =  2.61572e-09
  Excitation energy:                                              12.417249 eV
  Excited state 10 (singlet, A)                                     [converged]
  Term symbol:  11 (1) A                                    R^2 =  7.74853e-07
  Excitation energy:                                              12.646472 eV
  Excitation energy:                                               0.317831 eV
  Excitation energy:                                               0.434274 eV
  Excitation energy:                                               0.116443 eV
  Excitation energy:                                               1.096959 eV
  Excitation energy:                                               0.779128 eV
  Excitation energy:                                               0.662685 eV
  Excitation energy:                                               1.475600 eV
  Excitation energy:                                               1.157768 eV
  Excitation energy:                                               1.041325 eV
  Excitation energy:                                               0.378641 eV
  Excitation energy:                                               1.799202 eV
  Excitation energy:                                               1.481371 eV
  Excitation energy:                                               1.364928 eV
  Excitation energy:                                               0.702243 eV
  Excitation energy:                                               0.323603 eV
  Excitation energy:                                               2.820638 eV
  Excitation energy:                                               2.502807 eV
  Excitation energy:                                               2.386364 eV
  Excitation energy:                                               1.723679 eV
  Excitation energy:                                               1.345039 eV
  Excitation energy:                                               1.021436 eV
  Excitation energy:                                               3.428624 eV
  Excitation energy:                                               3.110793 eV
  Excitation energy:                                               2.994350 eV
  Excitation energy:                                               2.331665 eV
  Excitation energy:                                               1.953024 eV
  Excitation energy:                                               1.629422 eV
  Excitation energy:                                               0.607986 eV
  Excitation energy:                                               3.680352 eV
  Excitation energy:                                               3.362521 eV
  Excitation energy:                                               3.246078 eV
  Excitation energy:                                               2.583393 eV
  Excitation energy:                                               2.204753 eV
  Excitation energy:                                               1.881150 eV
  Excitation energy:                                               0.859714 eV
  Excitation energy:                                               0.251728 eV
  Excitation energy:                                               3.909576 eV
  Excitation energy:                                               3.591745 eV
  Excitation energy:                                               3.475302 eV
  Excitation energy:                                               2.812617 eV
  Excitation energy:                                               2.433977 eV
  Excitation energy:                                               2.110374 eV
  Excitation energy:                                               1.088938 eV
  Excitation energy:                                               0.480952 eV
  Excitation energy:                                               0.229224 eV

                    Orbital Energies (a.u.)
 --------------------------------------------------------------

 Alpha MOs
 -- Occupied --
-11.2351 -11.2334  -1.0323  -0.7898  -0.6412  -0.5819  -0.5046  -0.3740

          Ground-State Mulliken Net Atomic Charges

     Atom                 Charge (a.u.)
  ----------------------------------------
      1 H                     0.048037
      2 C                    -0.094993
      3 H                     0.047638
      4 C                    -0.095541
      5 H                     0.047193
      6 H                     0.047666
  ----------------------------------------
  Sum of atomic charges =     0.000000

                    Cartesian Multipole Moments
 -----------------------------------------------------------------
    Charge (ESU x 10^10)
                -0.0000
    Dipole Moment (Debye)
         X      -0.0015      Y       0.0019      Z      -0.0023
       Tot       0.0033
    Quadrupole Moments (Debye-Ang)
        XX     -12.2133     XY      -0.0591     YY     -12.2682
        XZ       0.1517     YZ       0.1935     ZZ     -15.5413

 Total job time:  66.54s(wall), 217.17s(cpu)
        *  Thank you very much for using Q-Chem.  Have a nice day.  *
