 Q-Chem 5.4 (devel), Q-Chem, Inc., Pleasanton, CA (2021)
 Q-Chem 5.4.1 for Intel X86 EM64T Linux

User input:
--------------------------------------------------------------
$comment
generated from CCJob.Templates
$end

$rem
sym_ignore = true
method = adc(2)
ee_states = 10
basis = cc-pVDZ
mem_static = 1024
mem_total = 30000
adc_davidson_maxiter = 900
adc_davidson_conv = 6
adc_print = 3
adc_prop_es = true
adc_prop_es2es = true
adc_prop_tpa = true
molden_format = True
state_analysis = true
print_orbitals = 15
gen_scfman = false
fde_export_density = true
fde_details = 3
$end

$molecule
0 1
H -0.0348278765 -0.2442097827 0.0636489606
C -1.0715972949 -0.5242748755 -0.0023551776
H -1.313264467 -1.5767591607 -0.0757276926
C -2.043634118 0.3926884087 0.0061254933
H -1.8137616575 1.4459188338 0.0804456828
H -3.085977293 0.114931858 -0.0593381042
$end
--------------------------------------------------------------

             Standard Nuclear Orientation (Angstroms)
    I     Atom           X                Y                Z
 ----------------------------------------------------------------
    1      H      -0.0348278765    -0.2442097827     0.0636489606
    2      C      -1.0715972949    -0.5242748755    -0.0023551776
    3      H      -1.3132644670    -1.5767591607    -0.0757276926
    4      C      -2.0436341180     0.3926884087     0.0061254933
    5      H      -1.8137616575     1.4459188338     0.0804456828
    6      H      -3.0859772930     0.1149318580    -0.0593381042
 ----------------------------------------------------------------

   10     -78.0397465579      6.94E-09 Convergence criterion met
 Total energy in the final basis set = -78.03974656
  Excited state 1 (singlet, A)                                     [converged]
  Term symbol:  2 (1) A                                     R^2 =  9.34170e-14
  Excitation energy:                                               8.705591 eV
  Excited state 2 (singlet, A)                                     [converged]
  Term symbol:  3 (1) A                                     R^2 =  1.10415e-13
  Excitation energy:                                               9.054578 eV
  Excited state 3 (singlet, A)                                     [converged]
  Term symbol:  4 (1) A                                     R^2 =  1.62136e-13
  Excitation energy:                                               9.155303 eV
  Excited state 4 (singlet, A)                                     [converged]
  Term symbol:  5 (1) A                                     R^2 =  3.54784e-13
  Excitation energy:                                               9.832018 eV
  Excited state 5 (singlet, A)                                     [converged]
  Term symbol:  6 (1) A                                     R^2 =  6.54097e-13
  Excitation energy:                                              10.187636 eV
  Excited state 6 (singlet, A)                                     [converged]
  Term symbol:  7 (1) A                                     R^2 =  6.66088e-13
  Excitation energy:                                              10.508697 eV
  Excited state 7 (singlet, A)                                     [converged]
  Term symbol:  8 (1) A                                     R^2 =  7.85520e-10
  Excitation energy:                                              11.576960 eV
  Excited state 8 (singlet, A)                                     [converged]
  Term symbol:  9 (1) A                                     R^2 =  1.30155e-11
  Excitation energy:                                              12.146350 eV
  Excited state 9 (singlet, A)                                     [converged]
  Term symbol:  10 (1) A                                    R^2 =  9.31203e-11
  Excitation energy:                                              12.397860 eV
  Excited state 10 (singlet, A)                                     [converged]
  Term symbol:  11 (1) A                                    R^2 =  6.74428e-07
  Excitation energy:                                              12.676363 eV
  Excitation energy:                                               0.348987 eV
  Excitation energy:                                               0.449712 eV
  Excitation energy:                                               0.100725 eV
  Excitation energy:                                               1.126427 eV
  Excitation energy:                                               0.777440 eV
  Excitation energy:                                               0.676715 eV
  Excitation energy:                                               1.482045 eV
  Excitation energy:                                               1.133058 eV
  Excitation energy:                                               1.032333 eV
  Excitation energy:                                               0.355618 eV
  Excitation energy:                                               1.803106 eV
  Excitation energy:                                               1.454119 eV
  Excitation energy:                                               1.353394 eV
  Excitation energy:                                               0.676679 eV
  Excitation energy:                                               0.321061 eV
  Excitation energy:                                               2.871369 eV
  Excitation energy:                                               2.522382 eV
  Excitation energy:                                               2.421656 eV
  Excitation energy:                                               1.744941 eV
  Excitation energy:                                               1.389324 eV
  Excitation energy:                                               1.068263 eV
  Excitation energy:                                               3.440759 eV
  Excitation energy:                                               3.091772 eV
  Excitation energy:                                               2.991046 eV
  Excitation energy:                                               2.314331 eV
  Excitation energy:                                               1.958714 eV
  Excitation energy:                                               1.637653 eV
  Excitation energy:                                               0.569390 eV
  Excitation energy:                                               3.692269 eV
  Excitation energy:                                               3.343283 eV
  Excitation energy:                                               3.242557 eV
  Excitation energy:                                               2.565842 eV
  Excitation energy:                                               2.210224 eV
  Excitation energy:                                               1.889164 eV
  Excitation energy:                                               0.820901 eV
  Excitation energy:                                               0.251511 eV
  Excitation energy:                                               3.970772 eV
  Excitation energy:                                               3.621785 eV
  Excitation energy:                                               3.521059 eV
  Excitation energy:                                               2.844344 eV
  Excitation energy:                                               2.488727 eV
  Excitation energy:                                               2.167666 eV
  Excitation energy:                                               1.099403 eV
  Excitation energy:                                               0.530013 eV
  Excitation energy:                                               0.278502 eV

                    Orbital Energies (a.u.)
 --------------------------------------------------------------

 Alpha MOs
 -- Occupied --
-11.2354 -11.2338  -1.0314  -0.7904  -0.6413  -0.5811  -0.5056  -0.3731

          Ground-State Mulliken Net Atomic Charges

     Atom                 Charge (a.u.)
  ----------------------------------------
      1 H                     0.047465
      2 C                    -0.093697
      3 H                     0.048061
      4 C                    -0.097144
      5 H                     0.047261
      6 H                     0.048055
  ----------------------------------------
  Sum of atomic charges =     0.000000

                    Cartesian Multipole Moments
 -----------------------------------------------------------------
    Charge (ESU x 10^10)
                 0.0000
    Dipole Moment (Debye)
         X      -0.0008      Y       0.0034      Z       0.0017
       Tot       0.0038
    Quadrupole Moments (Debye-Ang)
        XX     -12.1986     XY      -0.0572     YY     -12.2804
        XZ       0.1537     YZ       0.1932     ZZ     -15.5509

 Total job time:  66.55s(wall), 220.18s(cpu)
        *  Thank you very much for using Q-Chem.  Have a nice day.  *
