 Q-Chem 5.4 (devel), Q-Chem, Inc., Pleasanton, CA (2021)
 Q-Chem 5.4.1 for Intel X86 EM64T Linux

User input:
--------------------------------------------------------------
$comment
generated from CCJob.Templates
$end

$rem
sym_ignore = true
method = adc(2)
ee_states = 10
basis = cc-pVDZ
mem_static = 1024
mem_total = 40000
adc_davidson_maxiter = 900
adc_davidson_conv = 6
adc_print = 3
adc_prop_es = true
adc_prop_es2es = true
adc_prop_tpa = true
molden_format = True
state_analysis = true
print_orbitals = 15
gen_scfman = false
fde_export_density = true
fde_details = 3
$end

$molecule
0 1
H -0.02342295905641009 -0.2475170137434307 0.06500411333557976
C -1.0774966829201398 -0.5248138471855369 -0.002366832398895449
H -1.300757140828988 -1.5911382727515802 -0.07755999453939065
C -2.04434471692025 0.3934475105145604 0.006606119901112665
H -1.8210625480290517 1.464382640748072 0.08205866796059777
H -3.103011770556053 0.11587123155666663 -0.06092416396443646
$end
--------------------------------------------------------------

             Standard Nuclear Orientation (Angstroms)
    I     Atom           X                Y                Z
 ----------------------------------------------------------------
    1      H      -0.0234229591    -0.2475170137     0.0650041133
    2      C      -1.0774966829    -0.5248138472    -0.0023668324
    3      H      -1.3007571408    -1.5911382728    -0.0775599945
    4      C      -2.0443447169     0.3934475105     0.0066061199
    5      H      -1.8210625480     1.4643826407     0.0820586680
    6      H      -3.1030117706     0.1158712316    -0.0609241640
 ----------------------------------------------------------------

   11     -78.0396384770      8.06E-09 Convergence criterion met
 Total energy in the final basis set = -78.03963848
  Excited state 1 (singlet, A)                                     [converged]
  Term symbol:  2 (1) A                                     R^2 =  1.13632e-09
  Excitation energy:                                               8.731824 eV
  Excited state 2 (singlet, A)                                     [converged]
  Term symbol:  3 (1) A                                     R^2 =  1.39826e-11
  Excitation energy:                                               8.952414 eV
  Excited state 3 (singlet, A)                                     [converged]
  Term symbol:  4 (1) A                                     R^2 =  1.41573e-11
  Excitation energy:                                               9.141555 eV
  Excited state 4 (singlet, A)                                     [converged]
  Term symbol:  5 (1) A                                     R^2 =  1.21798e-11
  Excitation energy:                                               9.738200 eV
  Excited state 5 (singlet, A)                                     [converged]
  Term symbol:  6 (1) A                                     R^2 =  6.81588e-11
  Excitation energy:                                              10.158501 eV
  Excited state 6 (singlet, A)                                     [converged]
  Term symbol:  7 (1) A                                     R^2 =  3.17198e-10
  Excitation energy:                                              10.520849 eV
  Excited state 7 (singlet, A)                                     [converged]
  Term symbol:  8 (1) A                                     R^2 =  3.92681e-07
  Excitation energy:                                              11.433692 eV
  Excited state 8 (singlet, A)                                     [converged]
  Term symbol:  9 (1) A                                     R^2 =  5.68144e-08
  Excitation energy:                                              12.068345 eV
  Excited state 9 (singlet, A)                                     [converged]
  Term symbol:  10 (1) A                                    R^2 =  1.19234e-07
  Excitation energy:                                              12.346843 eV
  Excited state 10 (singlet, A)                                     [converged]
  Term symbol:  11 (1) A                                    R^2 =  9.76594e-07
  Excitation energy:                                              12.476731 eV
  Excitation energy:                                               0.220590 eV
  Excitation energy:                                               0.409731 eV
  Excitation energy:                                               0.189141 eV
  Excitation energy:                                               1.006376 eV
  Excitation energy:                                               0.785786 eV
  Excitation energy:                                               0.596645 eV
  Excitation energy:                                               1.426677 eV
  Excitation energy:                                               1.206087 eV
  Excitation energy:                                               1.016946 eV
  Excitation energy:                                               0.420301 eV
  Excitation energy:                                               1.789025 eV
  Excitation energy:                                               1.568435 eV
  Excitation energy:                                               1.379294 eV
  Excitation energy:                                               0.782649 eV
  Excitation energy:                                               0.362348 eV
  Excitation energy:                                               2.701868 eV
  Excitation energy:                                               2.481278 eV
  Excitation energy:                                               2.292137 eV
  Excitation energy:                                               1.695492 eV
  Excitation energy:                                               1.275191 eV
  Excitation energy:                                               0.912843 eV
  Excitation energy:                                               3.336521 eV
  Excitation energy:                                               3.115931 eV
  Excitation energy:                                               2.926790 eV
  Excitation energy:                                               2.330145 eV
  Excitation energy:                                               1.909844 eV
  Excitation energy:                                               1.547496 eV
  Excitation energy:                                               0.634653 eV
  Excitation energy:                                               3.615018 eV
  Excitation energy:                                               3.394429 eV
  Excitation energy:                                               3.205287 eV
  Excitation energy:                                               2.608642 eV
  Excitation energy:                                               2.188342 eV
  Excitation energy:                                               1.825993 eV
  Excitation energy:                                               0.913150 eV
  Excitation energy:                                               0.278498 eV
  Excitation energy:                                               3.744907 eV
  Excitation energy:                                               3.524317 eV
  Excitation energy:                                               3.335176 eV
  Excitation energy:                                               2.738531 eV
  Excitation energy:                                               2.318231 eV
  Excitation energy:                                               1.955882 eV
  Excitation energy:                                               1.043039 eV
  Excitation energy:                                               0.408386 eV
  Excitation energy:                                               0.129889 eV

                    Orbital Energies (a.u.)
 --------------------------------------------------------------

 Alpha MOs
 -- Occupied --
-11.2389 -11.2370  -1.0299  -0.7859  -0.6350  -0.5823  -0.4995  -0.3744

          Ground-State Mulliken Net Atomic Charges

     Atom                 Charge (a.u.)
  ----------------------------------------
      1 H                     0.051767
      2 C                    -0.101787
      3 H                     0.051775
      4 C                    -0.107697
      5 H                     0.052976
      6 H                     0.052965
  ----------------------------------------
  Sum of atomic charges =     0.000000

                    Cartesian Multipole Moments
 -----------------------------------------------------------------
    Charge (ESU x 10^10)
                -0.0000
    Dipole Moment (Debye)
         X       0.0019      Y      -0.0018      Z       0.0000
       Tot       0.0027
    Quadrupole Moments (Debye-Ang)
        XX     -12.2515     XY      -0.1025     YY     -12.2592
        XZ       0.1561     YZ       0.1986     ZZ     -15.6097

 Total job time:  116.15s(wall), 359.44s(cpu)
        *  Thank you very much for using Q-Chem.  Have a nice day.  *
