 Q-Chem 5.4 (devel), Q-Chem, Inc., Pleasanton, CA (2021)
 Q-Chem 5.4.1 for Intel X86 EM64T Linux

User input:
--------------------------------------------------------------
$comment
generated from CCJob.Templates
$end

$rem
sym_ignore = true
method = adc(2)
ee_states = 10
basis = cc-pVDZ
mem_static = 1024
mem_total = 40000
adc_davidson_maxiter = 900
adc_davidson_conv = 6
adc_print = 3
adc_prop_es = true
adc_prop_es2es = true
adc_prop_tpa = true
molden_format = True
state_analysis = true
print_orbitals = 15
gen_scfman = false
fde_export_density = true
fde_details = 3
$end

$molecule
0 1
H -0.0348278765 -0.2442097827 0.0636489606
C -1.0765972949 -0.5242748755 0.0376448224
H -1.313264467 -1.5767591607 -0.0757276926
C -2.043634118 0.3926884087 0.0061254933
H -1.8137616575 1.4459188338 0.0804456828
H -3.085977293 0.114931858 -0.0593381042
$end
--------------------------------------------------------------

             Standard Nuclear Orientation (Angstroms)
    I     Atom           X                Y                Z
 ----------------------------------------------------------------
    1      H      -0.0348278765    -0.2442097827     0.0636489606
    2      C      -1.0765972949    -0.5242748755     0.0376448224
    3      H      -1.3132644670    -1.5767591607    -0.0757276926
    4      C      -2.0436341180     0.3926884087     0.0061254933
    5      H      -1.8137616575     1.4459188338     0.0804456828
    6      H      -3.0859772930     0.1149318580    -0.0593381042
 ----------------------------------------------------------------

   11     -78.0395258429      7.05E-09 Convergence criterion met
 Total energy in the final basis set = -78.03952584
  Excited state 1 (singlet, A)                                     [converged]
  Term symbol:  2 (1) A                                     R^2 =  6.88871e-13
  Excitation energy:                                               8.726623 eV
  Excited state 2 (singlet, A)                                     [converged]
  Term symbol:  3 (1) A                                     R^2 =  4.96455e-13
  Excitation energy:                                               9.036598 eV
  Excited state 3 (singlet, A)                                     [converged]
  Term symbol:  4 (1) A                                     R^2 =  2.12774e-13
  Excitation energy:                                               9.172518 eV
  Excited state 4 (singlet, A)                                     [converged]
  Term symbol:  5 (1) A                                     R^2 =  5.26298e-13
  Excitation energy:                                               9.832847 eV
  Excited state 5 (singlet, A)                                     [converged]
  Term symbol:  6 (1) A                                     R^2 =  2.65777e-13
  Excitation energy:                                              10.204960 eV
  Excited state 6 (singlet, A)                                     [converged]
  Term symbol:  7 (1) A                                     R^2 =  8.57297e-13
  Excitation energy:                                              10.528214 eV
  Excited state 7 (singlet, A)                                     [converged]
  Term symbol:  8 (1) A                                     R^2 =  5.37385e-11
  Excitation energy:                                              11.548730 eV
  Excited state 8 (singlet, A)                                     [converged]
  Term symbol:  9 (1) A                                     R^2 =  6.82405e-09
  Excitation energy:                                              12.155186 eV
  Excited state 9 (singlet, A)                                     [converged]
  Term symbol:  10 (1) A                                    R^2 =  6.12167e-08
  Excitation energy:                                              12.408097 eV
  Excited state 10 (singlet, A)                                     [converged]
  Term symbol:  11 (1) A                                    R^2 =  7.94172e-07
  Excitation energy:                                              12.638092 eV
  Excitation energy:                                               0.309976 eV
  Excitation energy:                                               0.445895 eV
  Excitation energy:                                               0.135919 eV
  Excitation energy:                                               1.106224 eV
  Excitation energy:                                               0.796249 eV
  Excitation energy:                                               0.660329 eV
  Excitation energy:                                               1.478337 eV
  Excitation energy:                                               1.168361 eV
  Excitation energy:                                               1.032442 eV
  Excitation energy:                                               0.372113 eV
  Excitation energy:                                               1.801591 eV
  Excitation energy:                                               1.491615 eV
  Excitation energy:                                               1.355696 eV
  Excitation energy:                                               0.695367 eV
  Excitation energy:                                               0.323254 eV
  Excitation energy:                                               2.822107 eV
  Excitation energy:                                               2.512131 eV
  Excitation energy:                                               2.376212 eV
  Excitation energy:                                               1.715882 eV
  Excitation energy:                                               1.343770 eV
  Excitation energy:                                               1.020516 eV
  Excitation energy:                                               3.428564 eV
  Excitation energy:                                               3.118588 eV
  Excitation energy:                                               2.982669 eV
  Excitation energy:                                               2.322339 eV
  Excitation energy:                                               1.950227 eV
  Excitation energy:                                               1.626973 eV
  Excitation energy:                                               0.606457 eV
  Excitation energy:                                               3.681475 eV
  Excitation energy:                                               3.371499 eV
  Excitation energy:                                               3.235580 eV
  Excitation energy:                                               2.575250 eV
  Excitation energy:                                               2.203138 eV
  Excitation energy:                                               1.879884 eV
  Excitation energy:                                               0.859368 eV
  Excitation energy:                                               0.252911 eV
  Excitation energy:                                               3.911469 eV
  Excitation energy:                                               3.601493 eV
  Excitation energy:                                               3.465574 eV
  Excitation energy:                                               2.805245 eV
  Excitation energy:                                               2.433132 eV
  Excitation energy:                                               2.109878 eV
  Excitation energy:                                               1.089362 eV
  Excitation energy:                                               0.482905 eV
  Excitation energy:                                               0.229994 eV

                    Orbital Energies (a.u.)
 --------------------------------------------------------------

 Alpha MOs
 -- Occupied --
-11.2353 -11.2336  -1.0322  -0.7897  -0.6409  -0.5817  -0.5043  -0.3740

          Ground-State Mulliken Net Atomic Charges

     Atom                 Charge (a.u.)
  ----------------------------------------
      1 H                     0.048043
      2 C                    -0.096776
      3 H                     0.048419
      4 C                    -0.094834
      5 H                     0.047194
      6 H                     0.047954
  ----------------------------------------
  Sum of atomic charges =     0.000000

                    Cartesian Multipole Moments
 -----------------------------------------------------------------
    Charge (ESU x 10^10)
                -0.0000
    Dipole Moment (Debye)
         X      -0.0023      Y       0.0105      Z      -0.0545
       Tot       0.0556
    Quadrupole Moments (Debye-Ang)
        XX     -12.2016     XY      -0.0709     YY     -12.2909
        XZ       0.2158     YZ       0.2199     ZZ     -15.5429

 Total job time:  84.78s(wall), 290.57s(cpu)
        *  Thank you very much for using Q-Chem.  Have a nice day.  *
