 Q-Chem 5.4 (devel), Q-Chem, Inc., Pleasanton, CA (2021)
 Q-Chem 5.4.1 for Intel X86 EM64T Linux

User input:
--------------------------------------------------------------
$comment
generated from CCJob.Templates
$end

$rem
sym_ignore = true
method = adc(2)
ee_states = 10
basis = cc-pVDZ
mem_static = 1024
mem_total = 40000
adc_davidson_maxiter = 900
adc_davidson_conv = 6
adc_print = 3
adc_prop_es = true
adc_prop_es2es = true
adc_prop_tpa = true
molden_format = True
state_analysis = true
print_orbitals = 15
gen_scfman = false
fde_export_density = true
fde_details = 3
$end

$molecule
0 1
H -0.0348278765 -0.2442097827 0.0636489606
C -1.1165972949 -0.5242748755 -0.0023551776
H -1.313264467 -1.5767591607 -0.0757276926
C -2.043634118 0.3926884087 0.0061254933
H -1.8137616575 1.4459188338 0.0804456828
H -3.085977293 0.114931858 -0.0593381042
$end
--------------------------------------------------------------

             Standard Nuclear Orientation (Angstroms)
    I     Atom           X                Y                Z
 ----------------------------------------------------------------
    1      H      -0.0348278765    -0.2442097827     0.0636489606
    2      C      -1.1165972949    -0.5242748755    -0.0023551776
    3      H      -1.3132644670    -1.5767591607    -0.0757276926
    4      C      -2.0436341180     0.3926884087     0.0061254933
    5      H      -1.8137616575     1.4459188338     0.0804456828
    6      H      -3.0859772930     0.1149318580    -0.0593381042
 ----------------------------------------------------------------

   11     -78.0386949097      6.07E-09 Convergence criterion met
 Total energy in the final basis set = -78.03869491
  Excited state 1 (singlet, A)                                     [converged]
  Term symbol:  2 (1) A                                     R^2 =  2.05756e-13
  Excitation energy:                                               8.991732 eV
  Excited state 2 (singlet, A)                                     [converged]
  Term symbol:  3 (1) A                                     R^2 =  7.58183e-14
  Excitation energy:                                               9.019521 eV
  Excited state 3 (singlet, A)                                     [converged]
  Term symbol:  4 (1) A                                     R^2 =  9.61086e-14
  Excitation energy:                                               9.286613 eV
  Excited state 4 (singlet, A)                                     [converged]
  Term symbol:  5 (1) A                                     R^2 =  1.43087e-13
  Excitation energy:                                               9.848171 eV
  Excited state 5 (singlet, A)                                     [converged]
  Term symbol:  6 (1) A                                     R^2 =  1.93778e-13
  Excitation energy:                                              10.380192 eV
  Excited state 6 (singlet, A)                                     [converged]
  Term symbol:  7 (1) A                                     R^2 =  3.20228e-13
  Excitation energy:                                              10.806035 eV
  Excited state 7 (singlet, A)                                     [converged]
  Term symbol:  8 (1) A                                     R^2 =  5.59417e-13
  Excitation energy:                                              11.362561 eV
  Excited state 8 (singlet, A)                                     [converged]
  Term symbol:  9 (1) A                                     R^2 =  1.89260e-10
  Excitation energy:                                              12.318471 eV
  Excited state 9 (singlet, A)                                     [converged]
  Term symbol:  10 (1) A                                    R^2 =  5.39983e-08
  Excitation energy:                                              12.371517 eV
  Excited state 10 (singlet, A)                                     [converged]
  Term symbol:  11 (1) A                                    R^2 =  6.49760e-07
  Excitation energy:                                              12.570760 eV
  Excitation energy:                                               0.027790 eV
  Excitation energy:                                               0.294881 eV
  Excitation energy:                                               0.267091 eV
  Excitation energy:                                               0.856439 eV
  Excitation energy:                                               0.828650 eV
  Excitation energy:                                               0.561559 eV
  Excitation energy:                                               1.388461 eV
  Excitation energy:                                               1.360671 eV
  Excitation energy:                                               1.093580 eV
  Excitation energy:                                               0.532021 eV
  Excitation energy:                                               1.814303 eV
  Excitation energy:                                               1.786513 eV
  Excitation energy:                                               1.519422 eV
  Excitation energy:                                               0.957863 eV
  Excitation energy:                                               0.425842 eV
  Excitation energy:                                               2.370829 eV
  Excitation energy:                                               2.343040 eV
  Excitation energy:                                               2.075948 eV
  Excitation energy:                                               1.514390 eV
  Excitation energy:                                               0.982368 eV
  Excitation energy:                                               0.556526 eV
  Excitation energy:                                               3.326739 eV
  Excitation energy:                                               3.298950 eV
  Excitation energy:                                               3.031859 eV
  Excitation energy:                                               2.470300 eV
  Excitation energy:                                               1.938279 eV
  Excitation energy:                                               1.512437 eV
  Excitation energy:                                               0.955910 eV
  Excitation energy:                                               3.379785 eV
  Excitation energy:                                               3.351996 eV
  Excitation energy:                                               3.084905 eV
  Excitation energy:                                               2.523346 eV
  Excitation energy:                                               1.991325 eV
  Excitation energy:                                               1.565482 eV
  Excitation energy:                                               1.008956 eV
  Excitation energy:                                               0.053046 eV
  Excitation energy:                                               3.579028 eV
  Excitation energy:                                               3.551239 eV
  Excitation energy:                                               3.284148 eV
  Excitation energy:                                               2.722589 eV
  Excitation energy:                                               2.190568 eV
  Excitation energy:                                               1.764726 eV
  Excitation energy:                                               1.208199 eV
  Excitation energy:                                               0.252289 eV
  Excitation energy:                                               0.199243 eV

                    Orbital Energies (a.u.)
 --------------------------------------------------------------

 Alpha MOs
 -- Occupied --
-11.2334 -11.2299  -1.0400  -0.7853  -0.6399  -0.5888  -0.4951  -0.3814

          Ground-State Mulliken Net Atomic Charges

     Atom                 Charge (a.u.)
  ----------------------------------------
      1 H                     0.050825
      2 C                    -0.105520
      3 H                     0.044925
      4 C                    -0.081759
      5 H                     0.046913
      6 H                     0.044615
  ----------------------------------------
  Sum of atomic charges =     0.000000

                    Cartesian Multipole Moments
 -----------------------------------------------------------------
    Charge (ESU x 10^10)
                 0.0000
    Dipole Moment (Debye)
         X      -0.0174      Y      -0.0115      Z      -0.0030
       Tot       0.0210
    Quadrupole Moments (Debye-Ang)
        XX     -12.3194     XY      -0.0680     YY     -12.1670
        XZ       0.1449     YZ       0.1944     ZZ     -15.4624

 Total job time:  75.13s(wall), 251.74s(cpu)
        *  Thank you very much for using Q-Chem.  Have a nice day.  *
