 Q-Chem 5.4 (devel), Q-Chem, Inc., Pleasanton, CA (2021)
 Q-Chem 5.4.1 for Intel X86 EM64T Linux

User input:
--------------------------------------------------------------
$comment
generated from CCJob.Templates
$end

$rem
sym_ignore = true
method = adc(2)
ee_states = 10
basis = cc-pVDZ
mem_static = 1024
mem_total = 40000
adc_davidson_maxiter = 900
adc_davidson_conv = 6
adc_print = 3
adc_prop_es = true
adc_prop_es2es = true
adc_prop_tpa = true
molden_format = True
state_analysis = true
print_orbitals = 15
gen_scfman = false
fde_export_density = true
fde_details = 3
$end

$molecule
0 1
H -0.029549971905095028 -0.210007242968335 0.06707162440214673
C -1.0647594728720424 -0.5369095295331885 -0.0024834203444128035
H -1.338570523447544 -1.5869196350265626 -0.0792256177937656
C -2.0316123668699744 0.3813559241650756 0.006489159955771872
H -1.858879990645771 1.4686007184731416 0.0803950847052741
H -3.109139791404061 0.15338581832959663 -0.05885654889792713
$end
--------------------------------------------------------------

             Standard Nuclear Orientation (Angstroms)
    I     Atom           X                Y                Z
 ----------------------------------------------------------------
    1      H      -0.0295499719    -0.2100072430     0.0670716244
    2      C      -1.0647594729    -0.5369095295    -0.0024834203
    3      H      -1.3385705234    -1.5869196350    -0.0792256178
    4      C      -2.0316123669     0.3813559242     0.0064891600
    5      H      -1.8588799906     1.4686007185     0.0803950847
    6      H      -3.1091397914     0.1533858183    -0.0588565489
 ----------------------------------------------------------------

   11     -78.0378383545      6.52E-09 Convergence criterion met
 Total energy in the final basis set = -78.03783835
  Excited state 1 (singlet, A)                                     [converged]
  Term symbol:  2 (1) A                                     R^2 =  3.10949e-13
  Excitation energy:                                               8.732117 eV
  Excited state 2 (singlet, A)                                     [converged]
  Term symbol:  3 (1) A                                     R^2 =  2.99597e-13
  Excitation energy:                                               8.908754 eV
  Excited state 3 (singlet, A)                                     [converged]
  Term symbol:  4 (1) A                                     R^2 =  2.22217e-13
  Excitation energy:                                               9.131951 eV
  Excited state 4 (singlet, A)                                     [converged]
  Term symbol:  5 (1) A                                     R^2 =  3.44815e-13
  Excitation energy:                                               9.731881 eV
  Excited state 5 (singlet, A)                                     [converged]
  Term symbol:  6 (1) A                                     R^2 =  3.68717e-13
  Excitation energy:                                              10.141539 eV
  Excited state 6 (singlet, A)                                     [converged]
  Term symbol:  7 (1) A                                     R^2 =  1.13806e-12
  Excitation energy:                                              10.508004 eV
  Excited state 7 (singlet, A)                                     [converged]
  Term symbol:  8 (1) A                                     R^2 =  2.22499e-08
  Excitation energy:                                              11.375627 eV
  Excited state 8 (singlet, A)                                     [converged]
  Term symbol:  9 (1) A                                     R^2 =  8.99215e-08
  Excitation energy:                                              12.076236 eV
  Excited state 9 (singlet, A)                                     [converged]
  Term symbol:  10 (1) A                                    R^2 =  9.44403e-07
  Excitation energy:                                              12.341608 eV
  Excited state 10 (singlet, A)                                     [converged]
  Term symbol:  11 (1) A                                    R^2 =  1.81888e-07
  Excitation energy:                                              12.432953 eV
  Excitation energy:                                               0.176637 eV
  Excitation energy:                                               0.399834 eV
  Excitation energy:                                               0.223197 eV
  Excitation energy:                                               0.999764 eV
  Excitation energy:                                               0.823127 eV
  Excitation energy:                                               0.599930 eV
  Excitation energy:                                               1.409422 eV
  Excitation energy:                                               1.232784 eV
  Excitation energy:                                               1.009587 eV
  Excitation energy:                                               0.409658 eV
  Excitation energy:                                               1.775887 eV
  Excitation energy:                                               1.599249 eV
  Excitation energy:                                               1.376052 eV
  Excitation energy:                                               0.776123 eV
  Excitation energy:                                               0.366465 eV
  Excitation energy:                                               2.643510 eV
  Excitation energy:                                               2.466872 eV
  Excitation energy:                                               2.243675 eV
  Excitation energy:                                               1.643746 eV
  Excitation energy:                                               1.234088 eV
  Excitation energy:                                               0.867623 eV
  Excitation energy:                                               3.344119 eV
  Excitation energy:                                               3.167481 eV
  Excitation energy:                                               2.944285 eV
  Excitation energy:                                               2.344355 eV
  Excitation energy:                                               1.934697 eV
  Excitation energy:                                               1.568232 eV
  Excitation energy:                                               0.700609 eV
  Excitation energy:                                               3.609491 eV
  Excitation energy:                                               3.432854 eV
  Excitation energy:                                               3.209657 eV
  Excitation energy:                                               2.609727 eV
  Excitation energy:                                               2.200070 eV
  Excitation energy:                                               1.833605 eV
  Excitation energy:                                               0.965982 eV
  Excitation energy:                                               0.265372 eV
  Excitation energy:                                               3.700836 eV
  Excitation energy:                                               3.524198 eV
  Excitation energy:                                               3.301001 eV
  Excitation energy:                                               2.701072 eV
  Excitation energy:                                               2.291414 eV
  Excitation energy:                                               1.924949 eV
  Excitation energy:                                               1.057326 eV
  Excitation energy:                                               0.356717 eV
  Excitation energy:                                               0.091344 eV

                    Orbital Energies (a.u.)
 --------------------------------------------------------------

 Alpha MOs
 -- Occupied --
-11.2396 -11.2372  -1.0301  -0.7855  -0.6358  -0.5817  -0.4976  -0.3746

          Ground-State Mulliken Net Atomic Charges

     Atom                 Charge (a.u.)
  ----------------------------------------
      1 H                     0.054685
      2 C                    -0.086177
      3 H                     0.054690
      4 C                    -0.123959
      5 H                     0.050387
      6 H                     0.050373
  ----------------------------------------
  Sum of atomic charges =     0.000000

                    Cartesian Multipole Moments
 -----------------------------------------------------------------
    Charge (ESU x 10^10)
                -0.0000
    Dipole Moment (Debye)
         X      -0.0290      Y       0.0275      Z       0.0003
       Tot       0.0400
    Quadrupole Moments (Debye-Ang)
        XX     -12.1647     XY      -0.1481     YY     -12.2731
        XZ       0.1554     YZ       0.1984     ZZ     -15.6171

 Total job time:  137.80s(wall), 423.71s(cpu)
        *  Thank you very much for using Q-Chem.  Have a nice day.  *
