 Q-Chem 5.4 (devel), Q-Chem, Inc., Pleasanton, CA (2021)
 Q-Chem 5.4.1 for Intel X86 EM64T Linux

User input:
--------------------------------------------------------------
$comment
generated from CCJob.Templates
$end

$rem
sym_ignore = true
method = adc(2)
ee_states = 10
basis = cc-pVDZ
mem_static = 1024
mem_total = 30000
adc_davidson_maxiter = 900
adc_davidson_conv = 6
adc_print = 3
adc_prop_es = true
adc_prop_es2es = true
adc_prop_tpa = true
molden_format = True
state_analysis = true
print_orbitals = 15
gen_scfman = false
fde_export_density = true
fde_details = 3
$end

$molecule
0 1
H -0.0398278765 -0.2442097827 0.0636489606
C -1.0765972949 -0.5242748755 -0.0023551776
H -1.313264467 -1.5767591607 -0.0757276926
C -2.043634118 0.3926884087 0.0061254933
H -1.8137616575 1.4459188338 0.0804456828
H -3.085977293 0.114931858 -0.0593381042
$end
--------------------------------------------------------------

             Standard Nuclear Orientation (Angstroms)
    I     Atom           X                Y                Z
 ----------------------------------------------------------------
    1      H      -0.0398278765    -0.2442097827     0.0636489606
    2      C      -1.0765972949    -0.5242748755    -0.0023551776
    3      H      -1.3132644670    -1.5767591607    -0.0757276926
    4      C      -2.0436341180     0.3926884087     0.0061254933
    5      H      -1.8137616575     1.4459188338     0.0804456828
    6      H      -3.0859772930     0.1149318580    -0.0593381042
 ----------------------------------------------------------------

   11     -78.0398901160      6.76E-09 Convergence criterion met
 Total energy in the final basis set = -78.03989012
  Excited state 1 (singlet, A)                                     [converged]
  Term symbol:  2 (1) A                                     R^2 =  4.96747e-13
  Excitation energy:                                               8.736911 eV
  Excited state 2 (singlet, A)                                     [converged]
  Term symbol:  3 (1) A                                     R^2 =  2.90133e-13
  Excitation energy:                                               9.061635 eV
  Excited state 3 (singlet, A)                                     [converged]
  Term symbol:  4 (1) A                                     R^2 =  5.75909e-13
  Excitation energy:                                               9.174334 eV
  Excited state 4 (singlet, A)                                     [converged]
  Term symbol:  5 (1) A                                     R^2 =  4.10727e-13
  Excitation energy:                                               9.841549 eV
  Excited state 5 (singlet, A)                                     [converged]
  Term symbol:  6 (1) A                                     R^2 =  3.15375e-13
  Excitation energy:                                              10.216104 eV
  Excited state 6 (singlet, A)                                     [converged]
  Term symbol:  7 (1) A                                     R^2 =  3.18402e-13
  Excitation energy:                                              10.538546 eV
  Excited state 7 (singlet, A)                                     [converged]
  Term symbol:  8 (1) A                                     R^2 =  2.52121e-10
  Excitation energy:                                              11.567769 eV
  Excited state 8 (singlet, A)                                     [converged]
  Term symbol:  9 (1) A                                     R^2 =  6.44743e-11
  Excitation energy:                                              12.171488 eV
  Excited state 9 (singlet, A)                                     [converged]
  Term symbol:  10 (1) A                                    R^2 =  6.93503e-10
  Excitation energy:                                              12.422525 eV
  Excited state 10 (singlet, A)                                     [converged]
  Term symbol:  11 (1) A                                    R^2 =  9.85577e-07
  Excitation energy:                                              12.659958 eV
  Excitation energy:                                               0.324724 eV
  Excitation energy:                                               0.437423 eV
  Excitation energy:                                               0.112698 eV
  Excitation energy:                                               1.104638 eV
  Excitation energy:                                               0.779914 eV
  Excitation energy:                                               0.667215 eV
  Excitation energy:                                               1.479193 eV
  Excitation energy:                                               1.154468 eV
  Excitation energy:                                               1.041770 eV
  Excitation energy:                                               0.374555 eV
  Excitation energy:                                               1.801635 eV
  Excitation energy:                                               1.476911 eV
  Excitation energy:                                               1.364212 eV
  Excitation energy:                                               0.696997 eV
  Excitation energy:                                               0.322443 eV
  Excitation energy:                                               2.830858 eV
  Excitation energy:                                               2.506134 eV
  Excitation energy:                                               2.393435 eV
  Excitation energy:                                               1.726220 eV
  Excitation energy:                                               1.351665 eV
  Excitation energy:                                               1.029223 eV
  Excitation energy:                                               3.434578 eV
  Excitation energy:                                               3.109853 eV
  Excitation energy:                                               2.997155 eV
  Excitation energy:                                               2.329940 eV
  Excitation energy:                                               1.955385 eV
  Excitation energy:                                               1.632942 eV
  Excitation energy:                                               0.603720 eV
  Excitation energy:                                               3.685614 eV
  Excitation energy:                                               3.360889 eV
  Excitation energy:                                               3.248191 eV
  Excitation energy:                                               2.580976 eV
  Excitation energy:                                               2.206421 eV
  Excitation energy:                                               1.883979 eV
  Excitation energy:                                               0.854756 eV
  Excitation energy:                                               0.251036 eV
  Excitation energy:                                               3.923047 eV
  Excitation energy:                                               3.598323 eV
  Excitation energy:                                               3.485625 eV
  Excitation energy:                                               2.818409 eV
  Excitation energy:                                               2.443855 eV
  Excitation energy:                                               2.121412 eV
  Excitation energy:                                               1.092189 eV
  Excitation energy:                                               0.488470 eV
  Excitation energy:                                               0.237434 eV

                    Orbital Energies (a.u.)
 --------------------------------------------------------------

 Alpha MOs
 -- Occupied --
-11.2348 -11.2331  -1.0325  -0.7902  -0.6416  -0.5820  -0.5050  -0.3740

          Ground-State Mulliken Net Atomic Charges

     Atom                 Charge (a.u.)
  ----------------------------------------
      1 H                     0.046703
      2 C                    -0.092582
      3 H                     0.047507
      4 C                    -0.096315
      5 H                     0.047118
      6 H                     0.047570
  ----------------------------------------
  Sum of atomic charges =     0.000000

                    Cartesian Multipole Moments
 -----------------------------------------------------------------
    Charge (ESU x 10^10)
                 0.0000
    Dipole Moment (Debye)
         X       0.0002      Y       0.0021      Z       0.0015
       Tot       0.0026
    Quadrupole Moments (Debye-Ang)
        XX     -12.2198     XY      -0.0589     YY     -12.2653
        XZ       0.1523     YZ       0.1932     ZZ     -15.5350

 Total job time:  63.99s(wall), 216.24s(cpu)
        *  Thank you very much for using Q-Chem.  Have a nice day.  *
