 Q-Chem 5.4 (devel), Q-Chem, Inc., Pleasanton, CA (2021)
 Q-Chem 5.4.1 for Intel X86 EM64T Linux

User input:
--------------------------------------------------------------
$comment
generated from CCJob.Templates
$end

$rem
sym_ignore = true
method = adc(2)
ee_states = 10
basis = cc-pVDZ
mem_static = 1024
mem_total = 40000
adc_davidson_maxiter = 900
adc_davidson_conv = 6
adc_print = 3
adc_prop_es = true
adc_prop_es2es = true
adc_prop_tpa = true
molden_format = True
state_analysis = true
print_orbitals = 15
gen_scfman = false
fde_export_density = true
fde_details = 3
$end

$molecule
0 1
H -0.0348278765 -0.2442097827 0.0636489606
C -1.0765972949 -0.5242748755 -0.0023551776
H -1.313264467 -1.5767591607 -0.0757276926
C -2.043634118 0.3826884087 0.0061254933
H -1.8137616575 1.4459188338 0.0804456828
H -3.085977293 0.114931858 -0.0593381042
$end
--------------------------------------------------------------

             Standard Nuclear Orientation (Angstroms)
    I     Atom           X                Y                Z
 ----------------------------------------------------------------
    1      H      -0.0348278765    -0.2442097827     0.0636489606
    2      C      -1.0765972949    -0.5242748755    -0.0023551776
    3      H      -1.3132644670    -1.5767591607    -0.0757276926
    4      C      -2.0436341180     0.3826884087     0.0061254933
    5      H      -1.8137616575     1.4459188338     0.0804456828
    6      H      -3.0859772930     0.1149318580    -0.0593381042
 ----------------------------------------------------------------

   11     -78.0400022613      7.80E-09 Convergence criterion met
 Total energy in the final basis set = -78.04000226
  Excited state 1 (singlet, A)                                     [converged]
  Term symbol:  2 (1) A                                     R^2 =  8.24129e-14
  Excitation energy:                                               8.797118 eV
  Excited state 2 (singlet, A)                                     [converged]
  Term symbol:  3 (1) A                                     R^2 =  2.02481e-13
  Excitation energy:                                               9.047196 eV
  Excited state 3 (singlet, A)                                     [converged]
  Term symbol:  4 (1) A                                     R^2 =  1.52717e-13
  Excitation energy:                                               9.199661 eV
  Excited state 4 (singlet, A)                                     [converged]
  Term symbol:  5 (1) A                                     R^2 =  7.19638e-14
  Excitation energy:                                               9.835919 eV
  Excited state 5 (singlet, A)                                     [converged]
  Term symbol:  6 (1) A                                     R^2 =  1.03730e-13
  Excitation energy:                                              10.257575 eV
  Excited state 6 (singlet, A)                                     [converged]
  Term symbol:  7 (1) A                                     R^2 =  1.95947e-13
  Excitation energy:                                              10.593227 eV
  Excited state 7 (singlet, A)                                     [converged]
  Term symbol:  8 (1) A                                     R^2 =  4.40536e-13
  Excitation energy:                                              11.513055 eV
  Excited state 8 (singlet, A)                                     [converged]
  Term symbol:  9 (1) A                                     R^2 =  1.02579e-11
  Excitation energy:                                              12.201040 eV
  Excited state 9 (singlet, A)                                     [converged]
  Term symbol:  10 (1) A                                    R^2 =  7.37893e-10
  Excitation energy:                                              12.453032 eV
  Excited state 10 (singlet, A)                                     [converged]
  Term symbol:  11 (1) A                                    R^2 =  4.84349e-07
  Excitation energy:                                              12.582297 eV
  Excitation energy:                                               0.250078 eV
  Excitation energy:                                               0.402543 eV
  Excitation energy:                                               0.152465 eV
  Excitation energy:                                               1.038801 eV
  Excitation energy:                                               0.788723 eV
  Excitation energy:                                               0.636258 eV
  Excitation energy:                                               1.460457 eV
  Excitation energy:                                               1.210379 eV
  Excitation energy:                                               1.057914 eV
  Excitation energy:                                               0.421656 eV
  Excitation energy:                                               1.796109 eV
  Excitation energy:                                               1.546031 eV
  Excitation energy:                                               1.393566 eV
  Excitation energy:                                               0.757308 eV
  Excitation energy:                                               0.335651 eV
  Excitation energy:                                               2.715938 eV
  Excitation energy:                                               2.465859 eV
  Excitation energy:                                               2.313395 eV
  Excitation energy:                                               1.677136 eV
  Excitation energy:                                               1.255480 eV
  Excitation energy:                                               0.919829 eV
  Excitation energy:                                               3.403922 eV
  Excitation energy:                                               3.153844 eV
  Excitation energy:                                               3.001379 eV
  Excitation energy:                                               2.365121 eV
  Excitation energy:                                               1.943465 eV
  Excitation energy:                                               1.607813 eV
  Excitation energy:                                               0.687984 eV
  Excitation energy:                                               3.655914 eV
  Excitation energy:                                               3.405836 eV
  Excitation energy:                                               3.253371 eV
  Excitation energy:                                               2.617113 eV
  Excitation energy:                                               2.195457 eV
  Excitation energy:                                               1.859805 eV
  Excitation energy:                                               0.939976 eV
  Excitation energy:                                               0.251992 eV
  Excitation energy:                                               3.785180 eV
  Excitation energy:                                               3.535101 eV
  Excitation energy:                                               3.382637 eV
  Excitation energy:                                               2.746379 eV
  Excitation energy:                                               2.324722 eV
  Excitation energy:                                               1.989071 eV
  Excitation energy:                                               1.069242 eV
  Excitation energy:                                               0.381258 eV
  Excitation energy:                                               0.129266 eV

                    Orbital Energies (a.u.)
 --------------------------------------------------------------

 Alpha MOs
 -- Occupied --
-11.2345 -11.2327  -1.0341  -0.7887  -0.6408  -0.5836  -0.5024  -0.3757

          Ground-State Mulliken Net Atomic Charges

     Atom                 Charge (a.u.)
  ----------------------------------------
      1 H                     0.048052
      2 C                    -0.091936
      3 H                     0.046897
      4 C                    -0.098159
      5 H                     0.048261
      6 H                     0.046884
  ----------------------------------------
  Sum of atomic charges =     0.000000

                    Cartesian Multipole Moments
 -----------------------------------------------------------------
    Charge (ESU x 10^10)
                -0.0000
    Dipole Moment (Debye)
         X      -0.0051      Y      -0.0014      Z      -0.0000
       Tot       0.0052
    Quadrupole Moments (Debye-Ang)
        XX     -12.1766     XY      -0.0582     YY     -12.3066
        XZ       0.1550     YZ       0.1894     ZZ     -15.5227

 Total job time:  71.49s(wall), 192.23s(cpu)
        *  Thank you very much for using Q-Chem.  Have a nice day.  *
