 Q-Chem 5.4 (devel), Q-Chem, Inc., Pleasanton, CA (2021)
 Q-Chem 5.4.1 for Intel X86 EM64T Linux

User input:
--------------------------------------------------------------
$comment
generated from CCJob.Templates
$end

$rem
sym_ignore = true
method = adc(2)
ee_states = 10
basis = cc-pVDZ
mem_static = 1024
mem_total = 40000
adc_davidson_maxiter = 900
adc_davidson_conv = 6
adc_print = 3
adc_prop_es = true
adc_prop_es2es = true
adc_prop_tpa = true
molden_format = True
state_analysis = true
print_orbitals = 15
gen_scfman = false
fde_export_density = true
fde_details = 3
$end

$molecule
0 1
H -0.016694215016292896 -0.22900434373820808 0.06644874545899689
C -1.0416269824355577 -0.5588536194419734 -0.002701580440723528
H -1.3189444628341072 -1.5987820328904523 -0.07889145864380255
C -2.0810446851645192 0.42827808254202154 0.006948759940752396
H -1.8037637657656522 1.4682186419905292 0.08311828414381217
H -3.105987075683688 0.0984375132379579 -0.062123988159083494
$end
--------------------------------------------------------------

             Standard Nuclear Orientation (Angstroms)
    I     Atom           X                Y                Z
 ----------------------------------------------------------------
    1      H      -0.0166942150    -0.2290043437     0.0664487455
    2      C      -1.0416269824    -0.5588536194    -0.0027015804
    3      H      -1.3189444628    -1.5987820329    -0.0788914586
    4      C      -2.0810446852     0.4282780825     0.0069487599
    5      H      -1.8037637658     1.4682186420     0.0831182841
    6      H      -3.1059870757     0.0984375132    -0.0621239882
 ----------------------------------------------------------------

   10     -78.0256617018      9.55E-09 Convergence criterion met
 Total energy in the final basis set = -78.02566170
  Excited state 1 (singlet, A)                                     [converged]
  Term symbol:  2 (1) A                                     R^2 =  2.56350e-09
  Excitation energy:                                               7.916764 eV
  Excited state 2 (singlet, A)                                     [converged]
  Term symbol:  3 (1) A                                     R^2 =  2.74613e-12
  Excitation energy:                                               8.668829 eV
  Excited state 3 (singlet, A)                                     [converged]
  Term symbol:  4 (1) A                                     R^2 =  7.65696e-13
  Excitation energy:                                               9.007460 eV
  Excited state 4 (singlet, A)                                     [converged]
  Term symbol:  5 (1) A                                     R^2 =  2.16705e-12
  Excitation energy:                                               9.194384 eV
  Excited state 5 (singlet, A)                                     [converged]
  Term symbol:  6 (1) A                                     R^2 =  1.89966e-12
  Excitation energy:                                               9.655380 eV
  Excited state 6 (singlet, A)                                     [converged]
  Term symbol:  7 (1) A                                     R^2 =  2.41811e-11
  Excitation energy:                                               9.966840 eV
  Excited state 7 (singlet, A)                                     [converged]
  Term symbol:  8 (1) A                                     R^2 =  3.13279e-08
  Excitation energy:                                              11.612886 eV
  Excited state 8 (singlet, A)                                     [converged]
  Term symbol:  9 (1) A                                     R^2 =  3.77166e-09
  Excitation energy:                                              11.867618 eV
  Excited state 9 (singlet, A)                                     [converged]
  Term symbol:  10 (1) A                                    R^2 =  2.93858e-08
  Excitation energy:                                              11.894485 eV
  Excited state 10 (singlet, A)                                     [converged]
  Term symbol:  11 (1) A                                    R^2 =  5.21385e-07
  Excitation energy:                                              12.876423 eV
  Excitation energy:                                               0.752065 eV
  Excitation energy:                                               1.090696 eV
  Excitation energy:                                               0.338631 eV
  Excitation energy:                                               1.277620 eV
  Excitation energy:                                               0.525555 eV
  Excitation energy:                                               0.186924 eV
  Excitation energy:                                               1.738616 eV
  Excitation energy:                                               0.986551 eV
  Excitation energy:                                               0.647920 eV
  Excitation energy:                                               0.460996 eV
  Excitation energy:                                               2.050076 eV
  Excitation energy:                                               1.298011 eV
  Excitation energy:                                               0.959380 eV
  Excitation energy:                                               0.772456 eV
  Excitation energy:                                               0.311460 eV
  Excitation energy:                                               3.696122 eV
  Excitation energy:                                               2.944057 eV
  Excitation energy:                                               2.605427 eV
  Excitation energy:                                               2.418503 eV
  Excitation energy:                                               1.957507 eV
  Excitation energy:                                               1.646047 eV
  Excitation energy:                                               3.950854 eV
  Excitation energy:                                               3.198789 eV
  Excitation energy:                                               2.860159 eV
  Excitation energy:                                               2.673234 eV
  Excitation energy:                                               2.212238 eV
  Excitation energy:                                               1.900778 eV
  Excitation energy:                                               0.254732 eV
  Excitation energy:                                               3.977721 eV
  Excitation energy:                                               3.225656 eV
  Excitation energy:                                               2.887025 eV
  Excitation energy:                                               2.700101 eV
  Excitation energy:                                               2.239105 eV
  Excitation energy:                                               1.927645 eV
  Excitation energy:                                               0.281599 eV
  Excitation energy:                                               0.026867 eV
  Excitation energy:                                               4.959659 eV
  Excitation energy:                                               4.207594 eV
  Excitation energy:                                               3.868963 eV
  Excitation energy:                                               3.682039 eV
  Excitation energy:                                               3.221043 eV
  Excitation energy:                                               2.909583 eV
  Excitation energy:                                               1.263537 eV
  Excitation energy:                                               1.008805 eV
  Excitation energy:                                               0.981938 eV

                    Orbital Energies (a.u.)
 --------------------------------------------------------------

 Alpha MOs
 -- Occupied --
-11.2494 -11.2483  -1.0057  -0.7958  -0.6410  -0.5529  -0.5266  -0.3515

          Ground-State Mulliken Net Atomic Charges

     Atom                 Charge (a.u.)
  ----------------------------------------
      1 H                     0.057720
      2 C                    -0.115445
      3 H                     0.057729
      4 C                    -0.115450
      5 H                     0.057728
      6 H                     0.057718
  ----------------------------------------
  Sum of atomic charges =     0.000000

                    Cartesian Multipole Moments
 -----------------------------------------------------------------
    Charge (ESU x 10^10)
                 0.0000
    Dipole Moment (Debye)
         X      -0.0000      Y       0.0000      Z       0.0000
       Tot       0.0000
    Quadrupole Moments (Debye-Ang)
        XX     -12.2061     XY       0.1230     YY     -12.1976
        XZ       0.1864     YZ       0.2317     ZZ     -15.9122

 Total job time:  125.21s(wall), 393.53s(cpu)
        *  Thank you very much for using Q-Chem.  Have a nice day.  *
