 Q-Chem 5.4 (devel), Q-Chem, Inc., Pleasanton, CA (2021)
 Q-Chem 5.4.1 for Intel X86 EM64T Linux

User input:
--------------------------------------------------------------
$comment
generated from CCJob.Templates
$end

$rem
sym_ignore = true
method = adc(2)
ee_states = 10
basis = cc-pVDZ
mem_static = 1024
mem_total = 30000
adc_davidson_maxiter = 900
adc_davidson_conv = 6
adc_print = 3
adc_prop_es = true
adc_prop_es2es = true
adc_prop_tpa = true
molden_format = True
state_analysis = true
print_orbitals = 15
gen_scfman = false
fde_export_density = true
fde_details = 3
$end

$molecule
0 1
H -0.0348278765 -0.2442097827 0.0636489606
C -1.0765972949 -0.5242748755 -0.0023551776
H -1.313264467 -1.5767591607 -0.07072769259999999
C -2.043634118 0.3926884087 0.0061254933
H -1.8137616575 1.4459188338 0.0804456828
H -3.085977293 0.114931858 -0.0593381042
$end
--------------------------------------------------------------

             Standard Nuclear Orientation (Angstroms)
    I     Atom           X                Y                Z
 ----------------------------------------------------------------
    1      H      -0.0348278765    -0.2442097827     0.0636489606
    2      C      -1.0765972949    -0.5242748755    -0.0023551776
    3      H      -1.3132644670    -1.5767591607    -0.0707276926
    4      C      -2.0436341180     0.3926884087     0.0061254933
    5      H      -1.8137616575     1.4459188338     0.0804456828
    6      H      -3.0859772930     0.1149318580    -0.0593381042
 ----------------------------------------------------------------

   10     -78.0399251199      9.72E-09 Convergence criterion met
 Total energy in the final basis set = -78.03992512
  Excited state 1 (singlet, A)                                     [converged]
  Term symbol:  2 (1) A                                     R^2 =  6.50178e-14
  Excitation energy:                                               8.736881 eV
  Excited state 2 (singlet, A)                                     [converged]
  Term symbol:  3 (1) A                                     R^2 =  3.00697e-13
  Excitation energy:                                               9.054860 eV
  Excited state 3 (singlet, A)                                     [converged]
  Term symbol:  4 (1) A                                     R^2 =  7.24539e-14
  Excitation energy:                                               9.171164 eV
  Excited state 4 (singlet, A)                                     [converged]
  Term symbol:  5 (1) A                                     R^2 =  1.71041e-13
  Excitation energy:                                               9.833879 eV
  Excited state 5 (singlet, A)                                     [converged]
  Term symbol:  6 (1) A                                     R^2 =  9.97382e-14
  Excitation energy:                                              10.212497 eV
  Excited state 6 (singlet, A)                                     [converged]
  Term symbol:  7 (1) A                                     R^2 =  6.65143e-13
  Excitation energy:                                              10.536083 eV
  Excited state 7 (singlet, A)                                     [converged]
  Term symbol:  8 (1) A                                     R^2 =  8.22615e-12
  Excitation energy:                                              11.557646 eV
  Excited state 8 (singlet, A)                                     [converged]
  Term symbol:  9 (1) A                                     R^2 =  1.97749e-11
  Excitation energy:                                              12.165599 eV
  Excited state 9 (singlet, A)                                     [converged]
  Term symbol:  10 (1) A                                    R^2 =  6.94951e-10
  Excitation energy:                                              12.417319 eV
  Excited state 10 (singlet, A)                                     [converged]
  Term symbol:  11 (1) A                                    R^2 =  5.82904e-07
  Excitation energy:                                              12.646588 eV
  Excitation energy:                                               0.317979 eV
  Excitation energy:                                               0.434283 eV
  Excitation energy:                                               0.116304 eV
  Excitation energy:                                               1.096998 eV
  Excitation energy:                                               0.779019 eV
  Excitation energy:                                               0.662715 eV
  Excitation energy:                                               1.475616 eV
  Excitation energy:                                               1.157637 eV
  Excitation energy:                                               1.041333 eV
  Excitation energy:                                               0.378618 eV
  Excitation energy:                                               1.799201 eV
  Excitation energy:                                               1.481223 eV
  Excitation energy:                                               1.364918 eV
  Excitation energy:                                               0.702203 eV
  Excitation energy:                                               0.323585 eV
  Excitation energy:                                               2.820765 eV
  Excitation energy:                                               2.502786 eV
  Excitation energy:                                               2.386482 eV
  Excitation energy:                                               1.723767 eV
  Excitation energy:                                               1.345149 eV
  Excitation energy:                                               1.021564 eV
  Excitation energy:                                               3.428718 eV
  Excitation energy:                                               3.110739 eV
  Excitation energy:                                               2.994435 eV
  Excitation energy:                                               2.331720 eV
  Excitation energy:                                               1.953102 eV
  Excitation energy:                                               1.629517 eV
  Excitation energy:                                               0.607953 eV
  Excitation energy:                                               3.680437 eV
  Excitation energy:                                               3.362459 eV
  Excitation energy:                                               3.246155 eV
  Excitation energy:                                               2.583440 eV
  Excitation energy:                                               2.204822 eV
  Excitation energy:                                               1.881236 eV
  Excitation energy:                                               0.859673 eV
  Excitation energy:                                               0.251720 eV
  Excitation energy:                                               3.909706 eV
  Excitation energy:                                               3.591727 eV
  Excitation energy:                                               3.475423 eV
  Excitation energy:                                               2.812708 eV
  Excitation energy:                                               2.434090 eV
  Excitation energy:                                               2.110505 eV
  Excitation energy:                                               1.088941 eV
  Excitation energy:                                               0.480988 eV
  Excitation energy:                                               0.229269 eV

                    Orbital Energies (a.u.)
 --------------------------------------------------------------

 Alpha MOs
 -- Occupied --
-11.2351 -11.2334  -1.0323  -0.7898  -0.6412  -0.5819  -0.5046  -0.3740

          Ground-State Mulliken Net Atomic Charges

     Atom                 Charge (a.u.)
  ----------------------------------------
      1 H                     0.048100
      2 C                    -0.094974
      3 H                     0.047568
      4 C                    -0.095549
      5 H                     0.047193
      6 H                     0.047663
  ----------------------------------------
  Sum of atomic charges =     0.000000

                    Cartesian Multipole Moments
 -----------------------------------------------------------------
    Charge (ESU x 10^10)
                -0.0000
    Dipole Moment (Debye)
         X      -0.0020      Y       0.0013      Z       0.0046
       Tot       0.0052
    Quadrupole Moments (Debye-Ang)
        XX     -12.2129     XY      -0.0582     YY     -12.2670
        XZ       0.1475     YZ       0.1868     ZZ     -15.5413

 Total job time:  144.43s(wall), 428.24s(cpu)
        *  Thank you very much for using Q-Chem.  Have a nice day.  *
