 Q-Chem 5.4 (devel), Q-Chem, Inc., Pleasanton, CA (2021)
 Q-Chem 5.4.1 for Intel X86 EM64T Linux

User input:
--------------------------------------------------------------
$comment
generated from CCJob.Templates
$end

$rem
sym_ignore = true
method = adc(2)
ee_states = 10
basis = cc-pVDZ
mem_static = 1024
mem_total = 40000
adc_davidson_maxiter = 900
adc_davidson_conv = 6
adc_print = 3
adc_prop_es = true
adc_prop_es2es = true
adc_prop_tpa = true
molden_format = True
state_analysis = true
print_orbitals = 15
gen_scfman = false
fde_export_density = true
fde_details = 3
$end

$molecule
0 1
H -0.0348278765 -0.2442097827 0.0636489606
C -1.0765972949 -0.5242748755 -0.0023551776
H -1.313264467 -1.5767591607 -0.0757276926
C -2.043634118 0.3926884087 0.0061254933
H -1.8137616575 1.4459188338 0.0804456828
H -3.085977293 0.114931858 -0.0993381042
$end
--------------------------------------------------------------

             Standard Nuclear Orientation (Angstroms)
    I     Atom           X                Y                Z
 ----------------------------------------------------------------
    1      H      -0.0348278765    -0.2442097827     0.0636489606
    2      C      -1.0765972949    -0.5242748755    -0.0023551776
    3      H      -1.3132644670    -1.5767591607    -0.0757276926
    4      C      -2.0436341180     0.3926884087     0.0061254933
    5      H      -1.8137616575     1.4459188338     0.0804456828
    6      H      -3.0859772930     0.1149318580    -0.0993381042
 ----------------------------------------------------------------

   11     -78.0398524021      5.33E-09 Convergence criterion met
 Total energy in the final basis set = -78.03985240
  Excited state 1 (singlet, A)                                     [converged]
  Term symbol:  2 (1) A                                     R^2 =  4.57516e-13
  Excitation energy:                                               8.726900 eV
  Excited state 2 (singlet, A)                                     [converged]
  Term symbol:  3 (1) A                                     R^2 =  4.29347e-13
  Excitation energy:                                               9.056493 eV
  Excited state 3 (singlet, A)                                     [converged]
  Term symbol:  4 (1) A                                     R^2 =  4.66534e-13
  Excitation energy:                                               9.165781 eV
  Excited state 4 (singlet, A)                                     [converged]
  Term symbol:  5 (1) A                                     R^2 =  6.35908e-13
  Excitation energy:                                               9.828793 eV
  Excited state 5 (singlet, A)                                     [converged]
  Term symbol:  6 (1) A                                     R^2 =  7.87881e-13
  Excitation energy:                                              10.206938 eV
  Excited state 6 (singlet, A)                                     [converged]
  Term symbol:  7 (1) A                                     R^2 =  4.73337e-12
  Excitation energy:                                              10.531307 eV
  Excited state 7 (singlet, A)                                     [converged]
  Term symbol:  8 (1) A                                     R^2 =  9.05535e-09
  Excitation energy:                                              11.550758 eV
  Excited state 8 (singlet, A)                                     [converged]
  Term symbol:  9 (1) A                                     R^2 =  1.77634e-08
  Excitation energy:                                              12.161549 eV
  Excited state 9 (singlet, A)                                     [converged]
  Term symbol:  10 (1) A                                    R^2 =  1.10513e-07
  Excitation energy:                                              12.413421 eV
  Excited state 10 (singlet, A)                                     [converged]
  Term symbol:  11 (1) A                                    R^2 =  9.46916e-07
  Excitation energy:                                              12.638669 eV
  Excitation energy:                                               0.329593 eV
  Excitation energy:                                               0.438881 eV
  Excitation energy:                                               0.109288 eV
  Excitation energy:                                               1.101893 eV
  Excitation energy:                                               0.772300 eV
  Excitation energy:                                               0.663012 eV
  Excitation energy:                                               1.480038 eV
  Excitation energy:                                               1.150445 eV
  Excitation energy:                                               1.041157 eV
  Excitation energy:                                               0.378145 eV
  Excitation energy:                                               1.804406 eV
  Excitation energy:                                               1.474813 eV
  Excitation energy:                                               1.365525 eV
  Excitation energy:                                               0.702513 eV
  Excitation energy:                                               0.324369 eV
  Excitation energy:                                               2.823858 eV
  Excitation energy:                                               2.494265 eV
  Excitation energy:                                               2.384977 eV
  Excitation energy:                                               1.721965 eV
  Excitation energy:                                               1.343820 eV
  Excitation energy:                                               1.019452 eV
  Excitation energy:                                               3.434649 eV
  Excitation energy:                                               3.105056 eV
  Excitation energy:                                               2.995768 eV
  Excitation energy:                                               2.332756 eV
  Excitation energy:                                               1.954611 eV
  Excitation energy:                                               1.630242 eV
  Excitation energy:                                               0.610791 eV
  Excitation energy:                                               3.686521 eV
  Excitation energy:                                               3.356927 eV
  Excitation energy:                                               3.247640 eV
  Excitation energy:                                               2.584628 eV
  Excitation energy:                                               2.206483 eV
  Excitation energy:                                               1.882114 eV
  Excitation energy:                                               0.862663 eV
  Excitation energy:                                               0.251872 eV
  Excitation energy:                                               3.911769 eV
  Excitation energy:                                               3.582176 eV
  Excitation energy:                                               3.472888 eV
  Excitation energy:                                               2.809876 eV
  Excitation energy:                                               2.431732 eV
  Excitation energy:                                               2.107363 eV
  Excitation energy:                                               1.087911 eV
  Excitation energy:                                               0.477121 eV
  Excitation energy:                                               0.225249 eV

                    Orbital Energies (a.u.)
 --------------------------------------------------------------

 Alpha MOs
 -- Occupied --
-11.2353 -11.2336  -1.0322  -0.7894  -0.6410  -0.5817  -0.5044  -0.3740

          Ground-State Mulliken Net Atomic Charges

     Atom                 Charge (a.u.)
  ----------------------------------------
      1 H                     0.048133
      2 C                    -0.094684
      3 H                     0.047692
      4 C                    -0.097123
      5 H                     0.047389
      6 H                     0.048593
  ----------------------------------------
  Sum of atomic charges =     0.000000

                    Cartesian Multipole Moments
 -----------------------------------------------------------------
    Charge (ESU x 10^10)
                -0.0000
    Dipole Moment (Debye)
         X       0.0023      Y       0.0028      Z      -0.0265
       Tot       0.0267
    Quadrupole Moments (Debye-Ang)
        XX     -12.2371     XY      -0.0595     YY     -12.2683
        XZ       0.2466     YZ       0.1955     ZZ     -15.5385

 Total job time:  85.63s(wall), 269.90s(cpu)
        *  Thank you very much for using Q-Chem.  Have a nice day.  *
