 Q-Chem 5.4 (devel), Q-Chem, Inc., Pleasanton, CA (2021)
 Q-Chem 5.4.1 for Intel X86 EM64T Linux

User input:
--------------------------------------------------------------
$comment
generated from CCJob.Templates
$end

$rem
sym_ignore = true
method = adc(2)
ee_states = 10
basis = cc-pVDZ
mem_static = 1024
mem_total = 30000
adc_davidson_maxiter = 900
adc_davidson_conv = 6
adc_print = 3
adc_prop_es = true
adc_prop_es2es = true
adc_prop_tpa = true
molden_format = True
state_analysis = true
print_orbitals = 15
gen_scfman = false
fde_export_density = true
fde_details = 3
$end

$molecule
0 1
H -0.0348278765 -0.2442097827 0.0636489606
C -1.0765972949 -0.5292748755 -0.0023551776
H -1.313264467 -1.5767591607 -0.0757276926
C -2.043634118 0.3926884087 0.0061254933
H -1.8137616575 1.4459188338 0.0804456828
H -3.085977293 0.114931858 -0.0593381042
$end
--------------------------------------------------------------

             Standard Nuclear Orientation (Angstroms)
    I     Atom           X                Y                Z
 ----------------------------------------------------------------
    1      H      -0.0348278765    -0.2442097827     0.0636489606
    2      C      -1.0765972949    -0.5292748755    -0.0023551776
    3      H      -1.3132644670    -1.5767591607    -0.0757276926
    4      C      -2.0436341180     0.3926884087     0.0061254933
    5      H      -1.8137616575     1.4459188338     0.0804456828
    6      H      -3.0859772930     0.1149318580    -0.0593381042
 ----------------------------------------------------------------

   11     -78.0397765809      5.06E-09 Convergence criterion met
 Total energy in the final basis set = -78.03977658
  Excited state 1 (singlet, A)                                     [converged]
  Term symbol:  2 (1) A                                     R^2 =  1.75750e-11
  Excitation energy:                                               8.707211 eV
  Excited state 2 (singlet, A)                                     [converged]
  Term symbol:  3 (1) A                                     R^2 =  9.82766e-13
  Excitation energy:                                               9.056362 eV
  Excited state 3 (singlet, A)                                     [converged]
  Term symbol:  4 (1) A                                     R^2 =  7.78717e-13
  Excitation energy:                                               9.156180 eV
  Excited state 4 (singlet, A)                                     [converged]
  Term symbol:  5 (1) A                                     R^2 =  2.50735e-12
  Excitation energy:                                               9.832018 eV
  Excited state 5 (singlet, A)                                     [converged]
  Term symbol:  6 (1) A                                     R^2 =  2.30826e-11
  Excitation energy:                                              10.188091 eV
  Excited state 6 (singlet, A)                                     [converged]
  Term symbol:  7 (1) A                                     R^2 =  5.86047e-11
  Excitation energy:                                              10.509454 eV
  Excited state 7 (singlet, A)                                     [converged]
  Term symbol:  8 (1) A                                     R^2 =  2.06676e-07
  Excitation energy:                                              11.577255 eV
  Excited state 8 (singlet, A)                                     [converged]
  Term symbol:  9 (1) A                                     R^2 =  8.76245e-08
  Excitation energy:                                              12.147575 eV
  Excited state 9 (singlet, A)                                     [converged]
  Term symbol:  10 (1) A                                    R^2 =  2.40312e-07
  Excitation energy:                                              12.399125 eV
  Excited state 10 (singlet, A)                                     [converged]
  Term symbol:  11 (1) A                                    R^2 =  9.79218e-07
  Excitation energy:                                              12.675744 eV
  Excitation energy:                                               0.349150 eV
  Excitation energy:                                               0.448969 eV
  Excitation energy:                                               0.099819 eV
  Excitation energy:                                               1.124807 eV
  Excitation energy:                                               0.775656 eV
  Excitation energy:                                               0.675838 eV
  Excitation energy:                                               1.480879 eV
  Excitation energy:                                               1.131729 eV
  Excitation energy:                                               1.031910 eV
  Excitation energy:                                               0.356073 eV
  Excitation energy:                                               1.802242 eV
  Excitation energy:                                               1.453092 eV
  Excitation energy:                                               1.353273 eV
  Excitation energy:                                               0.677436 eV
  Excitation energy:                                               0.321363 eV
  Excitation energy:                                               2.870044 eV
  Excitation energy:                                               2.520894 eV
  Excitation energy:                                               2.421075 eV
  Excitation energy:                                               1.745237 eV
  Excitation energy:                                               1.389165 eV
  Excitation energy:                                               1.067802 eV
  Excitation energy:                                               3.440364 eV
  Excitation energy:                                               3.091213 eV
  Excitation energy:                                               2.991395 eV
  Excitation energy:                                               2.315557 eV
  Excitation energy:                                               1.959484 eV
  Excitation energy:                                               1.638121 eV
  Excitation energy:                                               0.570320 eV
  Excitation energy:                                               3.691913 eV
  Excitation energy:                                               3.342763 eV
  Excitation energy:                                               3.242944 eV
  Excitation energy:                                               2.567107 eV
  Excitation energy:                                               2.211034 eV
  Excitation energy:                                               1.889671 eV
  Excitation energy:                                               0.821869 eV
  Excitation energy:                                               0.251550 eV
  Excitation energy:                                               3.968533 eV
  Excitation energy:                                               3.619382 eV
  Excitation energy:                                               3.519564 eV
  Excitation energy:                                               2.843726 eV
  Excitation energy:                                               2.487653 eV
  Excitation energy:                                               2.166290 eV
  Excitation energy:                                               1.098489 eV
  Excitation energy:                                               0.528169 eV
  Excitation energy:                                               0.276619 eV

                    Orbital Energies (a.u.)
 --------------------------------------------------------------

 Alpha MOs
 -- Occupied --
-11.2354 -11.2338  -1.0314  -0.7904  -0.6413  -0.5811  -0.5056  -0.3731

          Ground-State Mulliken Net Atomic Charges

     Atom                 Charge (a.u.)
  ----------------------------------------
      1 H                     0.048540
      2 C                    -0.093759
      3 H                     0.047014
      4 C                    -0.097080
      5 H                     0.047578
      6 H                     0.047707
  ----------------------------------------
  Sum of atomic charges =     0.000000

                    Cartesian Multipole Moments
 -----------------------------------------------------------------
    Charge (ESU x 10^10)
                 0.0000
    Dipole Moment (Debye)
         X      -0.0035      Y       0.0005      Z       0.0006
       Tot       0.0035
    Quadrupole Moments (Debye-Ang)
        XX     -12.2213     XY      -0.0541     YY     -12.2490
        XZ       0.1534     YZ       0.1953     ZZ     -15.5503

 Total job time:  56.19s(wall), 185.37s(cpu)
        *  Thank you very much for using Q-Chem.  Have a nice day.  *
