 Q-Chem 5.4 (devel), Q-Chem, Inc., Pleasanton, CA (2021)
 Q-Chem 5.4.1 for Intel X86 EM64T Linux

User input:
--------------------------------------------------------------
$comment
generated from CCJob.Templates
$end

$rem
sym_ignore = true
method = adc(2)
ee_states = 10
basis = cc-pVDZ
mem_static = 1024
mem_total = 30000
adc_davidson_maxiter = 900
adc_davidson_conv = 6
adc_print = 3
adc_prop_es = true
adc_prop_es2es = true
adc_prop_tpa = true
molden_format = True
state_analysis = true
print_orbitals = 15
gen_scfman = false
fde_export_density = true
fde_details = 3
$end

$molecule
0 1
H -0.0348278765 -0.2442097827 0.0636489606
C -1.0765972949 -0.5242748755 -0.0023551776
H -1.3182644669999999 -1.5767591607 -0.0757276926
C -2.043634118 0.3926884087 0.0061254933
H -1.8137616575 1.4459188338 0.0804456828
H -3.085977293 0.114931858 -0.0593381042
$end
--------------------------------------------------------------

             Standard Nuclear Orientation (Angstroms)
    I     Atom           X                Y                Z
 ----------------------------------------------------------------
    1      H      -0.0348278765    -0.2442097827     0.0636489606
    2      C      -1.0765972949    -0.5242748755    -0.0023551776
    3      H      -1.3182644670    -1.5767591607    -0.0757276926
    4      C      -2.0436341180     0.3926884087     0.0061254933
    5      H      -1.8137616575     1.4459188338     0.0804456828
    6      H      -3.0859772930     0.1149318580    -0.0593381042
 ----------------------------------------------------------------

   11     -78.0399102600      4.47E-09 Convergence criterion met
 Total energy in the final basis set = -78.03991026
  Excited state 1 (singlet, A)                                     [converged]
  Term symbol:  2 (1) A                                     R^2 =  1.73801e-13
  Excitation energy:                                               8.737507 eV
  Excited state 2 (singlet, A)                                     [converged]
  Term symbol:  3 (1) A                                     R^2 =  1.28623e-13
  Excitation energy:                                               9.056769 eV
  Excited state 3 (singlet, A)                                     [converged]
  Term symbol:  4 (1) A                                     R^2 =  1.82684e-13
  Excitation energy:                                               9.166344 eV
  Excited state 4 (singlet, A)                                     [converged]
  Term symbol:  5 (1) A                                     R^2 =  1.16075e-13
  Excitation energy:                                               9.831854 eV
  Excited state 5 (singlet, A)                                     [converged]
  Term symbol:  6 (1) A                                     R^2 =  1.52820e-13
  Excitation energy:                                              10.209009 eV
  Excited state 6 (singlet, A)                                     [converged]
  Term symbol:  7 (1) A                                     R^2 =  4.98720e-13
  Excitation energy:                                              10.532874 eV
  Excited state 7 (singlet, A)                                     [converged]
  Term symbol:  8 (1) A                                     R^2 =  4.96927e-11
  Excitation energy:                                              11.554620 eV
  Excited state 8 (singlet, A)                                     [converged]
  Term symbol:  9 (1) A                                     R^2 =  4.28821e-11
  Excitation energy:                                              12.167748 eV
  Excited state 9 (singlet, A)                                     [converged]
  Term symbol:  10 (1) A                                    R^2 =  6.82732e-10
  Excitation energy:                                              12.419163 eV
  Excited state 10 (singlet, A)                                     [converged]
  Term symbol:  11 (1) A                                    R^2 =  9.51174e-07
  Excitation energy:                                              12.645179 eV
  Excitation energy:                                               0.319262 eV
  Excitation energy:                                               0.428837 eV
  Excitation energy:                                               0.109575 eV
  Excitation energy:                                               1.094346 eV
  Excitation energy:                                               0.775084 eV
  Excitation energy:                                               0.665509 eV
  Excitation energy:                                               1.471502 eV
  Excitation energy:                                               1.152240 eV
  Excitation energy:                                               1.042665 eV
  Excitation energy:                                               0.377156 eV
  Excitation energy:                                               1.795367 eV
  Excitation energy:                                               1.476105 eV
  Excitation energy:                                               1.366530 eV
  Excitation energy:                                               0.701021 eV
  Excitation energy:                                               0.323865 eV
  Excitation energy:                                               2.817113 eV
  Excitation energy:                                               2.497851 eV
  Excitation energy:                                               2.388276 eV
  Excitation energy:                                               1.722767 eV
  Excitation energy:                                               1.345611 eV
  Excitation energy:                                               1.021746 eV
  Excitation energy:                                               3.430241 eV
  Excitation energy:                                               3.110979 eV
  Excitation energy:                                               3.001404 eV
  Excitation energy:                                               2.335894 eV
  Excitation energy:                                               1.958738 eV
  Excitation energy:                                               1.634873 eV
  Excitation energy:                                               0.613127 eV
  Excitation energy:                                               3.681655 eV
  Excitation energy:                                               3.362393 eV
  Excitation energy:                                               3.252818 eV
  Excitation energy:                                               2.587309 eV
  Excitation energy:                                               2.210153 eV
  Excitation energy:                                               1.886288 eV
  Excitation energy:                                               0.864542 eV
  Excitation energy:                                               0.251415 eV
  Excitation energy:                                               3.907672 eV
  Excitation energy:                                               3.588410 eV
  Excitation energy:                                               3.478835 eV
  Excitation energy:                                               2.813326 eV
  Excitation energy:                                               2.436170 eV
  Excitation energy:                                               2.112305 eV
  Excitation energy:                                               1.090559 eV
  Excitation energy:                                               0.477432 eV
  Excitation energy:                                               0.226017 eV

                    Orbital Energies (a.u.)
 --------------------------------------------------------------

 Alpha MOs
 -- Occupied --
-11.2351 -11.2334  -1.0323  -0.7895  -0.6413  -0.5816  -0.5047  -0.3740

          Ground-State Mulliken Net Atomic Charges

     Atom                 Charge (a.u.)
  ----------------------------------------
      1 H                     0.048358
      2 C                    -0.095457
      3 H                     0.047960
      4 C                    -0.095556
      5 H                     0.047085
      6 H                     0.047609
  ----------------------------------------
  Sum of atomic charges =     0.000000

                    Cartesian Multipole Moments
 -----------------------------------------------------------------
    Charge (ESU x 10^10)
                -0.0000
    Dipole Moment (Debye)
         X      -0.0028      Y       0.0030      Z       0.0014
       Tot       0.0043
    Quadrupole Moments (Debye-Ang)
        XX     -12.2076     XY      -0.0512     YY     -12.2749
        XZ       0.1532     YZ       0.1932     ZZ     -15.5427

 Total job time:  58.38s(wall), 177.45s(cpu)
        *  Thank you very much for using Q-Chem.  Have a nice day.  *
