 Q-Chem 5.4 (devel), Q-Chem, Inc., Pleasanton, CA (2021)
 Q-Chem 5.4.1 for Intel X86 EM64T Linux

User input:
--------------------------------------------------------------
$comment
generated from CCJob.Templates
$end

$rem
sym_ignore = true
method = adc(2)
ee_states = 10
basis = cc-pVDZ
mem_static = 1024
mem_total = 40000
adc_davidson_maxiter = 900
adc_davidson_conv = 6
adc_print = 3
adc_prop_es = true
adc_prop_es2es = true
adc_prop_tpa = true
molden_format = True
state_analysis = true
print_orbitals = 15
gen_scfman = false
fde_export_density = true
fde_details = 3
$end

$molecule
0 1
H -0.02114678378474525 -0.24882513704658327 0.06502966934489265
C -1.0785688984963977 -0.5237942795883406 -0.00235700040277936
H -1.2993338895626227 -1.5933479840586717 -0.07761945453531173
C -2.0454170884965013 0.3944672261117462 0.006615999897211407
H -1.8196393247627114 1.4621716974413428 0.08199906396473629
H -3.100734251284797 0.11456322025352017 -0.06089867195510364
$end
--------------------------------------------------------------

             Standard Nuclear Orientation (Angstroms)
    I     Atom           X                Y                Z
 ----------------------------------------------------------------
    1      H      -0.0211467838    -0.2488251370     0.0650296693
    2      C      -1.0785688985    -0.5237942796    -0.0023570004
    3      H      -1.2993338896    -1.5933479841    -0.0776194545
    4      C      -2.0454170885     0.3944672261     0.0066159999
    5      H      -1.8196393248     1.4621716974     0.0819990640
    6      H      -3.1007342513     0.1145632203    -0.0608986720
 ----------------------------------------------------------------

   11     -78.0396475833      3.23E-09 Convergence criterion met
 Total energy in the final basis set = -78.03964758
  Excited state 1 (singlet, A)                                     [converged]
  Term symbol:  2 (1) A                                     R^2 =  9.24818e-10
  Excitation energy:                                               8.731819 eV
  Excited state 2 (singlet, A)                                     [converged]
  Term symbol:  3 (1) A                                     R^2 =  5.82920e-12
  Excitation energy:                                               8.952362 eV
  Excited state 3 (singlet, A)                                     [converged]
  Term symbol:  4 (1) A                                     R^2 =  1.32950e-11
  Excitation energy:                                               9.141643 eV
  Excited state 4 (singlet, A)                                     [converged]
  Term symbol:  5 (1) A                                     R^2 =  9.49129e-12
  Excitation energy:                                               9.738233 eV
  Excited state 5 (singlet, A)                                     [converged]
  Term symbol:  6 (1) A                                     R^2 =  4.89773e-11
  Excitation energy:                                              10.158426 eV
  Excited state 6 (singlet, A)                                     [converged]
  Term symbol:  7 (1) A                                     R^2 =  4.44432e-10
  Excitation energy:                                              10.520825 eV
  Excited state 7 (singlet, A)                                     [converged]
  Term symbol:  8 (1) A                                     R^2 =  3.69583e-07
  Excitation energy:                                              11.433716 eV
  Excited state 8 (singlet, A)                                     [converged]
  Term symbol:  9 (1) A                                     R^2 =  8.26880e-08
  Excitation energy:                                              12.068307 eV
  Excited state 9 (singlet, A)                                     [converged]
  Term symbol:  10 (1) A                                    R^2 =  1.82436e-07
  Excitation energy:                                              12.346818 eV
  Excited state 10 (singlet, A)                                     [converged]
  Term symbol:  11 (1) A                                    R^2 =  7.94210e-07
  Excitation energy:                                              12.476693 eV
  Excitation energy:                                               0.220543 eV
  Excitation energy:                                               0.409824 eV
  Excitation energy:                                               0.189280 eV
  Excitation energy:                                               1.006414 eV
  Excitation energy:                                               0.785871 eV
  Excitation energy:                                               0.596590 eV
  Excitation energy:                                               1.426607 eV
  Excitation energy:                                               1.206064 eV
  Excitation energy:                                               1.016784 eV
  Excitation energy:                                               0.420193 eV
  Excitation energy:                                               1.789006 eV
  Excitation energy:                                               1.568462 eV
  Excitation energy:                                               1.379182 eV
  Excitation energy:                                               0.782592 eV
  Excitation energy:                                               0.362398 eV
  Excitation energy:                                               2.701898 eV
  Excitation energy:                                               2.481354 eV
  Excitation energy:                                               2.292074 eV
  Excitation energy:                                               1.695483 eV
  Excitation energy:                                               1.275290 eV
  Excitation energy:                                               0.912892 eV
  Excitation energy:                                               3.336488 eV
  Excitation energy:                                               3.115944 eV
  Excitation energy:                                               2.926664 eV
  Excitation energy:                                               2.330074 eV
  Excitation energy:                                               1.909880 eV
  Excitation energy:                                               1.547482 eV
  Excitation energy:                                               0.634590 eV
  Excitation energy:                                               3.615000 eV
  Excitation energy:                                               3.394456 eV
  Excitation energy:                                               3.205176 eV
  Excitation energy:                                               2.608585 eV
  Excitation energy:                                               2.188392 eV
  Excitation energy:                                               1.825994 eV
  Excitation energy:                                               0.913102 eV
  Excitation energy:                                               0.278512 eV
  Excitation energy:                                               3.744875 eV
  Excitation energy:                                               3.524331 eV
  Excitation energy:                                               3.335051 eV
  Excitation energy:                                               2.738460 eV
  Excitation energy:                                               2.318267 eV
  Excitation energy:                                               1.955869 eV
  Excitation energy:                                               1.042977 eV
  Excitation energy:                                               0.408387 eV
  Excitation energy:                                               0.129875 eV

                    Orbital Energies (a.u.)
 --------------------------------------------------------------

 Alpha MOs
 -- Occupied --
-11.2388 -11.2372  -1.0299  -0.7859  -0.6350  -0.5823  -0.4995  -0.3744

          Ground-State Mulliken Net Atomic Charges

     Atom                 Charge (a.u.)
  ----------------------------------------
      1 H                     0.052267
      2 C                    -0.105703
      3 H                     0.052277
      4 C                    -0.103797
      5 H                     0.052483
      6 H                     0.052473
  ----------------------------------------
  Sum of atomic charges =     0.000000

                    Cartesian Multipole Moments
 -----------------------------------------------------------------
    Charge (ESU x 10^10)
                -0.0000
    Dipole Moment (Debye)
         X       0.0014      Y      -0.0014      Z       0.0000
       Tot       0.0020
    Quadrupole Moments (Debye-Ang)
        XX     -12.2500     XY      -0.1032     YY     -12.2593
        XZ       0.1560     YZ       0.1986     ZZ     -15.6098

 Total job time:  115.77s(wall), 346.82s(cpu)
        *  Thank you very much for using Q-Chem.  Have a nice day.  *
