 Q-Chem 5.4 (devel), Q-Chem, Inc., Pleasanton, CA (2021)
 Q-Chem 5.4.1 for Intel X86 EM64T Linux

User input:
--------------------------------------------------------------
$comment
generated from CCJob.Templates
$end

$rem
sym_ignore = true
method = adc(2)
ee_states = 10
basis = cc-pVDZ
mem_static = 1024
mem_total = 40000
adc_davidson_maxiter = 900
adc_davidson_conv = 6
adc_print = 3
adc_prop_es = true
adc_prop_es2es = true
adc_prop_tpa = true
molden_format = True
state_analysis = true
print_orbitals = 15
gen_scfman = false
fde_export_density = true
fde_details = 3
$end

$molecule
0 1
H -0.021473075557406452 -0.24687616184204142 0.06353970438469429
C -1.0779973308496082 -0.5245262833619746 -0.0006516674130983863
H -1.3011216606534965 -1.592948796146325 -0.07928328341538875
C -2.0446738367504724 0.3939502304619077 0.0049009989144778035
H -1.8215884479464342 1.4623850692465001 0.08350591291301512
H -3.1012080111423836 0.11631151534210138 -0.059218363087079444
$end
--------------------------------------------------------------

             Standard Nuclear Orientation (Angstroms)
    I     Atom           X                Y                Z
 ----------------------------------------------------------------
    1      H      -0.0214730756    -0.2468761618     0.0635397044
    2      C      -1.0779973308    -0.5245262834    -0.0006516674
    3      H      -1.3011216607    -1.5929487961    -0.0792832834
    4      C      -2.0446738368     0.3939502305     0.0049009989
    5      H      -1.8215884479     1.4623850692     0.0835059129
    6      H      -3.1012080111     0.1163115153    -0.0592183631
 ----------------------------------------------------------------

   10     -78.0396470949      4.40E-09 Convergence criterion met
 Total energy in the final basis set = -78.03964709
  Excited state 1 (singlet, A)                                     [converged]
  Term symbol:  2 (1) A                                     R^2 =  5.74833e-13
  Excitation energy:                                               8.731691 eV
  Excited state 2 (singlet, A)                                     [converged]
  Term symbol:  3 (1) A                                     R^2 =  6.27433e-13
  Excitation energy:                                               8.952264 eV
  Excited state 3 (singlet, A)                                     [converged]
  Term symbol:  4 (1) A                                     R^2 =  5.94116e-13
  Excitation energy:                                               9.141716 eV
  Excited state 4 (singlet, A)                                     [converged]
  Term symbol:  5 (1) A                                     R^2 =  3.68027e-13
  Excitation energy:                                               9.738262 eV
  Excited state 5 (singlet, A)                                     [converged]
  Term symbol:  6 (1) A                                     R^2 =  9.62692e-13
  Excitation energy:                                              10.158402 eV
  Excited state 6 (singlet, A)                                     [converged]
  Term symbol:  7 (1) A                                     R^2 =  3.46272e-12
  Excitation energy:                                              10.520689 eV
  Excited state 7 (singlet, A)                                     [converged]
  Term symbol:  8 (1) A                                     R^2 =  8.26527e-09
  Excitation energy:                                              11.433784 eV
  Excited state 8 (singlet, A)                                     [converged]
  Term symbol:  9 (1) A                                     R^2 =  9.61891e-08
  Excitation energy:                                              12.068121 eV
  Excited state 9 (singlet, A)                                     [converged]
  Term symbol:  10 (1) A                                    R^2 =  7.82048e-07
  Excitation energy:                                              12.346741 eV
  Excited state 10 (singlet, A)                                     [converged]
  Term symbol:  11 (1) A                                    R^2 =  5.24651e-08
  Excitation energy:                                              12.476736 eV
  Excitation energy:                                               0.220573 eV
  Excitation energy:                                               0.410025 eV
  Excitation energy:                                               0.189452 eV
  Excitation energy:                                               1.006572 eV
  Excitation energy:                                               0.785999 eV
  Excitation energy:                                               0.596546 eV
  Excitation energy:                                               1.426711 eV
  Excitation energy:                                               1.206138 eV
  Excitation energy:                                               1.016686 eV
  Excitation energy:                                               0.420139 eV
  Excitation energy:                                               1.788998 eV
  Excitation energy:                                               1.568425 eV
  Excitation energy:                                               1.378973 eV
  Excitation energy:                                               0.782426 eV
  Excitation energy:                                               0.362287 eV
  Excitation energy:                                               2.702093 eV
  Excitation energy:                                               2.481520 eV
  Excitation energy:                                               2.292068 eV
  Excitation energy:                                               1.695521 eV
  Excitation energy:                                               1.275382 eV
  Excitation energy:                                               0.913095 eV
  Excitation energy:                                               3.336431 eV
  Excitation energy:                                               3.115858 eV
  Excitation energy:                                               2.926405 eV
  Excitation energy:                                               2.329859 eV
  Excitation energy:                                               1.909720 eV
  Excitation energy:                                               1.547433 eV
  Excitation energy:                                               0.634338 eV
  Excitation energy:                                               3.615050 eV
  Excitation energy:                                               3.394477 eV
  Excitation energy:                                               3.205025 eV
  Excitation energy:                                               2.608478 eV
  Excitation energy:                                               2.188339 eV
  Excitation energy:                                               1.826052 eV
  Excitation energy:                                               0.912957 eV
  Excitation energy:                                               0.278619 eV
  Excitation energy:                                               3.745046 eV
  Excitation energy:                                               3.524473 eV
  Excitation energy:                                               3.335020 eV
  Excitation energy:                                               2.738474 eV
  Excitation energy:                                               2.318335 eV
  Excitation energy:                                               1.956048 eV
  Excitation energy:                                               1.042953 eV
  Excitation energy:                                               0.408615 eV
  Excitation energy:                                               0.129996 eV

                    Orbital Energies (a.u.)
 --------------------------------------------------------------

 Alpha MOs
 -- Occupied --
-11.2388 -11.2372  -1.0299  -0.7859  -0.6350  -0.5823  -0.4995  -0.3744

          Ground-State Mulliken Net Atomic Charges

     Atom                 Charge (a.u.)
  ----------------------------------------
      1 H                     0.052373
      2 C                    -0.104751
      3 H                     0.052383
      4 C                    -0.104759
      5 H                     0.052382
      6 H                     0.052371
  ----------------------------------------
  Sum of atomic charges =     0.000000

                    Cartesian Multipole Moments
 -----------------------------------------------------------------
    Charge (ESU x 10^10)
                -0.0000
    Dipole Moment (Debye)
         X      -0.0000      Y       0.0000      Z       0.0000
       Tot       0.0000
    Quadrupole Moments (Debye-Ang)
        XX     -12.2450     XY      -0.1051     YY     -12.2602
        XZ       0.1495     YZ       0.2047     ZZ     -15.6096

 Total job time:  132.36s(wall), 400.01s(cpu)
        *  Thank you very much for using Q-Chem.  Have a nice day.  *
