 Q-Chem 5.4 (devel), Q-Chem, Inc., Pleasanton, CA (2021)
 Q-Chem 5.4.1 for Intel X86 EM64T Linux

User input:
--------------------------------------------------------------
$comment
generated from CCJob.Templates
$end

$rem
sym_ignore = true
method = adc(2)
ee_states = 10
basis = cc-pVDZ
mem_static = 1024
mem_total = 40000
adc_davidson_maxiter = 900
adc_davidson_conv = 6
adc_print = 3
adc_prop_es = true
adc_prop_es2es = true
adc_prop_tpa = true
molden_format = True
state_analysis = true
print_orbitals = 15
gen_scfman = false
fde_export_density = true
fde_details = 3
$end

$molecule
0 1
H -0.021024839402915437 -0.24566698940561407 0.06502027725974929
C -1.0755578299115929 -0.522095498422978 -0.00234268439232342
H -1.2998892282043322 -1.5925090079988506 -0.07756826245180395
C -2.04429289662378 0.39418007852728865 0.0065932078936763346
H -1.82200368008714 1.4627159773898932 0.08179605195219804
H -3.1008392829885536 0.11587326719666727 -0.060693759959356705
$end
--------------------------------------------------------------

             Standard Nuclear Orientation (Angstroms)
    I     Atom           X                Y                Z
 ----------------------------------------------------------------
    1      H      -0.0210248394    -0.2456669894     0.0650202773
    2      C      -1.0755578299    -0.5220954984    -0.0023426844
    3      H      -1.2998892282    -1.5925090080    -0.0775682625
    4      C      -2.0442928966     0.3941800785     0.0065932079
    5      H      -1.8220036801     1.4627159774     0.0817960520
    6      H      -3.1008392830     0.1158732672    -0.0606937600
 ----------------------------------------------------------------

   11     -78.0396455779      1.26E-09 Convergence criterion met
 Total energy in the final basis set = -78.03964558
  Excited state 1 (singlet, A)                                     [converged]
  Term symbol:  2 (1) A                                     R^2 =  2.54031e-13
  Excitation energy:                                               8.731791 eV
  Excited state 2 (singlet, A)                                     [converged]
  Term symbol:  3 (1) A                                     R^2 =  1.41695e-13
  Excitation energy:                                               8.952304 eV
  Excited state 3 (singlet, A)                                     [converged]
  Term symbol:  4 (1) A                                     R^2 =  2.11698e-13
  Excitation energy:                                               9.141580 eV
  Excited state 4 (singlet, A)                                     [converged]
  Term symbol:  5 (1) A                                     R^2 =  3.05668e-13
  Excitation energy:                                               9.738303 eV
  Excited state 5 (singlet, A)                                     [converged]
  Term symbol:  6 (1) A                                     R^2 =  2.04494e-13
  Excitation energy:                                              10.158489 eV
  Excited state 6 (singlet, A)                                     [converged]
  Term symbol:  7 (1) A                                     R^2 =  3.48317e-13
  Excitation energy:                                              10.520899 eV
  Excited state 7 (singlet, A)                                     [converged]
  Term symbol:  8 (1) A                                     R^2 =  1.56986e-10
  Excitation energy:                                              11.433719 eV
  Excited state 8 (singlet, A)                                     [converged]
  Term symbol:  9 (1) A                                     R^2 =  1.48869e-10
  Excitation energy:                                              12.068247 eV
  Excited state 9 (singlet, A)                                     [converged]
  Term symbol:  10 (1) A                                    R^2 =  1.86382e-09
  Excitation energy:                                              12.346788 eV
  Excited state 10 (singlet, A)                                     [converged]
  Term symbol:  11 (1) A                                    R^2 =  5.93467e-07
  Excitation energy:                                              12.476724 eV
  Excitation energy:                                               0.220513 eV
  Excitation energy:                                               0.409789 eV
  Excitation energy:                                               0.189276 eV
  Excitation energy:                                               1.006512 eV
  Excitation energy:                                               0.786000 eV
  Excitation energy:                                               0.596724 eV
  Excitation energy:                                               1.426698 eV
  Excitation energy:                                               1.206185 eV
  Excitation energy:                                               1.016909 eV
  Excitation energy:                                               0.420185 eV
  Excitation energy:                                               1.789108 eV
  Excitation energy:                                               1.568596 eV
  Excitation energy:                                               1.379319 eV
  Excitation energy:                                               0.782596 eV
  Excitation energy:                                               0.362410 eV
  Excitation energy:                                               2.701928 eV
  Excitation energy:                                               2.481415 eV
  Excitation energy:                                               2.292139 eV
  Excitation energy:                                               1.695415 eV
  Excitation energy:                                               1.275230 eV
  Excitation energy:                                               0.912819 eV
  Excitation energy:                                               3.336456 eV
  Excitation energy:                                               3.115943 eV
  Excitation energy:                                               2.926667 eV
  Excitation energy:                                               2.329943 eV
  Excitation energy:                                               1.909758 eV
  Excitation energy:                                               1.547347 eV
  Excitation energy:                                               0.634528 eV
  Excitation energy:                                               3.614997 eV
  Excitation energy:                                               3.394484 eV
  Excitation energy:                                               3.205208 eV
  Excitation energy:                                               2.608484 eV
  Excitation energy:                                               2.188299 eV
  Excitation energy:                                               1.825888 eV
  Excitation energy:                                               0.913069 eV
  Excitation energy:                                               0.278541 eV
  Excitation energy:                                               3.744933 eV
  Excitation energy:                                               3.524420 eV
  Excitation energy:                                               3.335144 eV
  Excitation energy:                                               2.738421 eV
  Excitation energy:                                               2.318235 eV
  Excitation energy:                                               1.955825 eV
  Excitation energy:                                               1.043005 eV
  Excitation energy:                                               0.408477 eV
  Excitation energy:                                               0.129936 eV

                    Orbital Energies (a.u.)
 --------------------------------------------------------------

 Alpha MOs
 -- Occupied --
-11.2388 -11.2372  -1.0299  -0.7859  -0.6350  -0.5823  -0.4995  -0.3744

          Ground-State Mulliken Net Atomic Charges

     Atom                 Charge (a.u.)
  ----------------------------------------
      1 H                     0.052074
      2 C                    -0.104676
      3 H                     0.052655
      4 C                    -0.104814
      5 H                     0.052215
      6 H                     0.052547
  ----------------------------------------
  Sum of atomic charges =     0.000000

                    Cartesian Multipole Moments
 -----------------------------------------------------------------
    Charge (ESU x 10^10)
                -0.0000
    Dipole Moment (Debye)
         X       0.0011      Y       0.0013      Z       0.0005
       Tot       0.0018
    Quadrupole Moments (Debye-Ang)
        XX     -12.2400     XY      -0.1067     YY     -12.2686
        XZ       0.1555     YZ       0.1977     ZZ     -15.6098

 Total job time:  162.55s(wall), 452.43s(cpu)
        *  Thank you very much for using Q-Chem.  Have a nice day.  *
