 Q-Chem 5.4 (devel), Q-Chem, Inc., Pleasanton, CA (2021)
 Q-Chem 5.4.1 for Intel X86 EM64T Linux

User input:
--------------------------------------------------------------
$comment
generated from CCJob.Templates
$end

$rem
sym_ignore = true
method = adc(2)
ee_states = 10
basis = cc-pVDZ
mem_static = 1024
mem_total = 40000
adc_davidson_maxiter = 900
adc_davidson_conv = 6
adc_print = 3
adc_prop_es = true
adc_prop_es2es = true
adc_prop_tpa = true
molden_format = True
state_analysis = true
print_orbitals = 15
gen_scfman = false
fde_export_density = true
fde_details = 3
$end

$molecule
0 1
H -0.021463507614903784 -0.24717561786445874 0.06597449314858479
C -1.0776361348491572 -0.524452351294009 -0.0019237804784669106
H -1.3012062046993025 -1.5929405442181015 -0.07889597828562192
C -2.044164124906399 0.3941229623499651 0.009480339387228278
H -1.8212516679457789 1.4624479893053328 0.0840818596142795
H -3.100965619130172 0.1166822273517108 -0.060689872019928634
$end
--------------------------------------------------------------

             Standard Nuclear Orientation (Angstroms)
    I     Atom           X                Y                Z
 ----------------------------------------------------------------
    1      H      -0.0214635076    -0.2471756179     0.0659744931
    2      C      -1.0776361348    -0.5244523513    -0.0019237805
    3      H      -1.3012062047    -1.5929405442    -0.0788959783
    4      C      -2.0441641249     0.3941229623     0.0094803394
    5      H      -1.8212516679     1.4624479893     0.0840818596
    6      H      -3.1009656191     0.1166822274    -0.0606898720
 ----------------------------------------------------------------

   10     -78.0396507153      9.40E-09 Convergence criterion met
 Total energy in the final basis set = -78.03965072
  Excited state 1 (singlet, A)                                     [converged]
  Term symbol:  2 (1) A                                     R^2 =  7.10939e-14
  Excitation energy:                                               8.731777 eV
  Excited state 2 (singlet, A)                                     [converged]
  Term symbol:  3 (1) A                                     R^2 =  7.00894e-14
  Excitation energy:                                               8.952423 eV
  Excited state 3 (singlet, A)                                     [converged]
  Term symbol:  4 (1) A                                     R^2 =  8.73158e-14
  Excitation energy:                                               9.141654 eV
  Excited state 4 (singlet, A)                                     [converged]
  Term symbol:  5 (1) A                                     R^2 =  1.32973e-13
  Excitation energy:                                               9.738245 eV
  Excited state 5 (singlet, A)                                     [converged]
  Term symbol:  6 (1) A                                     R^2 =  1.18713e-13
  Excitation energy:                                              10.158447 eV
  Excited state 6 (singlet, A)                                     [converged]
  Term symbol:  7 (1) A                                     R^2 =  6.98207e-13
  Excitation energy:                                              10.520822 eV
  Excited state 7 (singlet, A)                                     [converged]
  Term symbol:  8 (1) A                                     R^2 =  4.49403e-11
  Excitation energy:                                              11.433840 eV
  Excited state 8 (singlet, A)                                     [converged]
  Term symbol:  9 (1) A                                     R^2 =  1.22835e-08
  Excitation energy:                                              12.068244 eV
  Excited state 9 (singlet, A)                                     [converged]
  Term symbol:  10 (1) A                                    R^2 =  1.75340e-07
  Excitation energy:                                              12.346806 eV
  Excited state 10 (singlet, A)                                     [converged]
  Term symbol:  11 (1) A                                    R^2 =  5.20378e-07
  Excitation energy:                                              12.476791 eV
  Excitation energy:                                               0.220646 eV
  Excitation energy:                                               0.409877 eV
  Excitation energy:                                               0.189231 eV
  Excitation energy:                                               1.006468 eV
  Excitation energy:                                               0.785822 eV
  Excitation energy:                                               0.596591 eV
  Excitation energy:                                               1.426671 eV
  Excitation energy:                                               1.206024 eV
  Excitation energy:                                               1.016794 eV
  Excitation energy:                                               0.420202 eV
  Excitation energy:                                               1.789045 eV
  Excitation energy:                                               1.568399 eV
  Excitation energy:                                               1.379168 eV
  Excitation energy:                                               0.782577 eV
  Excitation energy:                                               0.362374 eV
  Excitation energy:                                               2.702063 eV
  Excitation energy:                                               2.481417 eV
  Excitation energy:                                               2.292187 eV
  Excitation energy:                                               1.695595 eV
  Excitation energy:                                               1.275393 eV
  Excitation energy:                                               0.913018 eV
  Excitation energy:                                               3.336468 eV
  Excitation energy:                                               3.115821 eV
  Excitation energy:                                               2.926591 eV
  Excitation energy:                                               2.330000 eV
  Excitation energy:                                               1.909797 eV
  Excitation energy:                                               1.547423 eV
  Excitation energy:                                               0.634404 eV
  Excitation energy:                                               3.615030 eV
  Excitation energy:                                               3.394383 eV
  Excitation energy:                                               3.205153 eV
  Excitation energy:                                               2.608561 eV
  Excitation energy:                                               2.188359 eV
  Excitation energy:                                               1.825985 eV
  Excitation energy:                                               0.912966 eV
  Excitation energy:                                               0.278562 eV
  Excitation energy:                                               3.745014 eV
  Excitation energy:                                               3.524368 eV
  Excitation energy:                                               3.335137 eV
  Excitation energy:                                               2.738546 eV
  Excitation energy:                                               2.318343 eV
  Excitation energy:                                               1.955969 eV
  Excitation energy:                                               1.042950 eV
  Excitation energy:                                               0.408546 eV
  Excitation energy:                                               0.129984 eV

                    Orbital Energies (a.u.)
 --------------------------------------------------------------

 Alpha MOs
 -- Occupied --
-11.2388 -11.2372  -1.0299  -0.7859  -0.6350  -0.5823  -0.4995  -0.3744

          Ground-State Mulliken Net Atomic Charges

     Atom                 Charge (a.u.)
  ----------------------------------------
      1 H                     0.052311
      2 C                    -0.104617
      3 H                     0.052416
      4 C                    -0.104883
      5 H                     0.052318
      6 H                     0.052456
  ----------------------------------------
  Sum of atomic charges =     0.000000

                    Cartesian Multipole Moments
 -----------------------------------------------------------------
    Charge (ESU x 10^10)
                -0.0000
    Dipole Moment (Debye)
         X       0.0005      Y       0.0005      Z      -0.0031
       Tot       0.0032
    Quadrupole Moments (Debye-Ang)
        XX     -12.2493     XY      -0.1064     YY     -12.2578
        XZ       0.1631     YZ       0.2017     ZZ     -15.6092

 Total job time:  148.34s(wall), 453.52s(cpu)
        *  Thank you very much for using Q-Chem.  Have a nice day.  *
