 Q-Chem 5.4 (devel), Q-Chem, Inc., Pleasanton, CA (2021)
 Q-Chem 5.4.1 for Intel X86 EM64T Linux

User input:
--------------------------------------------------------------
$comment
generated from CCJob.Templates
$end

$rem
sym_ignore = true
method = adc(2)
ee_states = 10
basis = cc-pVDZ
mem_static = 1024
mem_total = 40000
adc_davidson_maxiter = 900
adc_davidson_conv = 6
adc_print = 3
adc_prop_es = true
adc_prop_es2es = true
adc_prop_tpa = true
molden_format = True
state_analysis = true
print_orbitals = 15
gen_scfman = false
fde_export_density = true
fde_details = 3
$end

$molecule
0 1
H -0.021632507599690615 -0.24690096190027372 0.06608399729653963
C -1.078191738798986 -0.5242265593006951 0.0009907195878745534
H -1.3013000006996467 -1.593035208200024 -0.07597947450620589
C -2.0449570407992868 0.39415119839888524 0.007041351898440303
H -1.8215486758998527 1.4626162332994996 0.08130314800223992
H -3.1011874110998088 0.116481335399749 -0.06066158400050561
$end
--------------------------------------------------------------

             Standard Nuclear Orientation (Angstroms)
    I     Atom           X                Y                Z
 ----------------------------------------------------------------
    1      H      -0.0216325076    -0.2469009619     0.0660839973
    2      C      -1.0781917388    -0.5242265593     0.0009907196
    3      H      -1.3013000007    -1.5930352082    -0.0759794745
    4      C      -2.0449570408     0.3941511984     0.0070413519
    5      H      -1.8215486759     1.4626162333     0.0813031480
    6      H      -3.1011874111     0.1164813354    -0.0606615840
 ----------------------------------------------------------------

   10     -78.0396505746      9.33E-09 Convergence criterion met
 Total energy in the final basis set = -78.03965057
  Excited state 1 (singlet, A)                                     [converged]
  Term symbol:  2 (1) A                                     R^2 =  2.32662e-13
  Excitation energy:                                               8.731759 eV
  Excited state 2 (singlet, A)                                     [converged]
  Term symbol:  3 (1) A                                     R^2 =  1.82060e-13
  Excitation energy:                                               8.952413 eV
  Excited state 3 (singlet, A)                                     [converged]
  Term symbol:  4 (1) A                                     R^2 =  3.00064e-13
  Excitation energy:                                               9.141661 eV
  Excited state 4 (singlet, A)                                     [converged]
  Term symbol:  5 (1) A                                     R^2 =  8.16440e-13
  Excitation energy:                                               9.738242 eV
  Excited state 5 (singlet, A)                                     [converged]
  Term symbol:  6 (1) A                                     R^2 =  1.82999e-12
  Excitation energy:                                              10.158439 eV
  Excited state 6 (singlet, A)                                     [converged]
  Term symbol:  7 (1) A                                     R^2 =  1.18163e-11
  Excitation energy:                                              10.520801 eV
  Excited state 7 (singlet, A)                                     [converged]
  Term symbol:  8 (1) A                                     R^2 =  7.79387e-09
  Excitation energy:                                              11.433847 eV
  Excited state 8 (singlet, A)                                     [converged]
  Term symbol:  9 (1) A                                     R^2 =  1.73459e-07
  Excitation energy:                                              12.068228 eV
  Excited state 9 (singlet, A)                                     [converged]
  Term symbol:  10 (1) A                                    R^2 =  9.74273e-07
  Excitation energy:                                              12.346798 eV
  Excited state 10 (singlet, A)                                     [converged]
  Term symbol:  11 (1) A                                    R^2 =  1.39652e-07
  Excitation energy:                                              12.476795 eV
  Excitation energy:                                               0.220655 eV
  Excitation energy:                                               0.409903 eV
  Excitation energy:                                               0.189248 eV
  Excitation energy:                                               1.006483 eV
  Excitation energy:                                               0.785829 eV
  Excitation energy:                                               0.596581 eV
  Excitation energy:                                               1.426680 eV
  Excitation energy:                                               1.206025 eV
  Excitation energy:                                               1.016777 eV
  Excitation energy:                                               0.420197 eV
  Excitation energy:                                               1.789043 eV
  Excitation energy:                                               1.568388 eV
  Excitation energy:                                               1.379140 eV
  Excitation energy:                                               0.782559 eV
  Excitation energy:                                               0.362363 eV
  Excitation energy:                                               2.702088 eV
  Excitation energy:                                               2.481433 eV
  Excitation energy:                                               2.292185 eV
  Excitation energy:                                               1.695605 eV
  Excitation energy:                                               1.275408 eV
  Excitation energy:                                               0.913046 eV
  Excitation energy:                                               3.336470 eV
  Excitation energy:                                               3.115815 eV
  Excitation energy:                                               2.926567 eV
  Excitation energy:                                               2.329986 eV
  Excitation energy:                                               1.909790 eV
  Excitation energy:                                               1.547427 eV
  Excitation energy:                                               0.634382 eV
  Excitation energy:                                               3.615040 eV
  Excitation energy:                                               3.394385 eV
  Excitation energy:                                               3.205137 eV
  Excitation energy:                                               2.608556 eV
  Excitation energy:                                               2.188359 eV
  Excitation energy:                                               1.825997 eV
  Excitation energy:                                               0.912951 eV
  Excitation energy:                                               0.278570 eV
  Excitation energy:                                               3.745036 eV
  Excitation energy:                                               3.524381 eV
  Excitation energy:                                               3.335133 eV
  Excitation energy:                                               2.738553 eV
  Excitation energy:                                               2.318356 eV
  Excitation energy:                                               1.955993 eV
  Excitation energy:                                               1.042948 eV
  Excitation energy:                                               0.408566 eV
  Excitation energy:                                               0.129996 eV

                    Orbital Energies (a.u.)
 --------------------------------------------------------------

 Alpha MOs
 -- Occupied --
-11.2388 -11.2372  -1.0299  -0.7859  -0.6350  -0.5823  -0.4995  -0.3744

          Ground-State Mulliken Net Atomic Charges

     Atom                 Charge (a.u.)
  ----------------------------------------
      1 H                     0.052371
      2 C                    -0.104957
      3 H                     0.052422
      4 C                    -0.104544
      5 H                     0.052342
      6 H                     0.052366
  ----------------------------------------
  Sum of atomic charges =     0.000000

                    Cartesian Multipole Moments
 -----------------------------------------------------------------
    Charge (ESU x 10^10)
                -0.0000
    Dipole Moment (Debye)
         X       0.0003      Y       0.0003      Z      -0.0037
       Tot       0.0037
    Quadrupole Moments (Debye-Ang)
        XX     -12.2460     XY      -0.1056     YY     -12.2596
        XZ       0.1612     YZ       0.1976     ZZ     -15.6100

 Total job time:  136.02s(wall), 405.17s(cpu)
        *  Thank you very much for using Q-Chem.  Have a nice day.  *
