 Q-Chem 5.4 (devel), Q-Chem, Inc., Pleasanton, CA (2021)
 Q-Chem 5.4.1 for Intel X86 EM64T Linux

User input:
--------------------------------------------------------------
$comment
generated from CCJob.Templates
$end

$rem
sym_ignore = true
method = adc(2)
ee_states = 10
basis = cc-pVDZ
mem_static = 1024
mem_total = 40000
adc_davidson_maxiter = 900
adc_davidson_conv = 6
adc_print = 3
adc_prop_es = true
adc_prop_es2es = true
adc_prop_tpa = true
molden_format = True
state_analysis = true
print_orbitals = 15
gen_scfman = false
fde_export_density = true
fde_details = 3
$end

$molecule
0 1
H -0.0348278765 -0.2442097827 0.0636489606
C -1.0765972949 -0.5242748755 -0.0023551776
H -1.313264467 -1.5767591607 -0.0757276926
C -2.043634118 0.3926884087 0.0061254933
H -1.8137616575 1.4459188338 0.0804456828
H -3.085977293 0.07493185799999999 -0.0593381042
$end
--------------------------------------------------------------

             Standard Nuclear Orientation (Angstroms)
    I     Atom           X                Y                Z
 ----------------------------------------------------------------
    1      H      -0.0348278765    -0.2442097827     0.0636489606
    2      C      -1.0765972949    -0.5242748755    -0.0023551776
    3      H      -1.3132644670    -1.5767591607    -0.0757276926
    4      C      -2.0436341180     0.3926884087     0.0061254933
    5      H      -1.8137616575     1.4459188338     0.0804456828
    6      H      -3.0859772930     0.0749318580    -0.0593381042
 ----------------------------------------------------------------

   11     -78.0396955711      7.80E-09 Convergence criterion met
 Total energy in the final basis set = -78.03969557
  Excited state 1 (singlet, A)                                     [converged]
  Term symbol:  2 (1) A                                     R^2 =  4.33044e-13
  Excitation energy:                                               8.740161 eV
  Excited state 2 (singlet, A)                                     [converged]
  Term symbol:  3 (1) A                                     R^2 =  5.38095e-13
  Excitation energy:                                               9.068616 eV
  Excited state 3 (singlet, A)                                     [converged]
  Term symbol:  4 (1) A                                     R^2 =  3.40281e-13
  Excitation energy:                                               9.133235 eV
  Excited state 4 (singlet, A)                                     [converged]
  Term symbol:  5 (1) A                                     R^2 =  3.21209e-13
  Excitation energy:                                               9.819178 eV
  Excited state 5 (singlet, A)                                     [converged]
  Term symbol:  6 (1) A                                     R^2 =  2.30955e-13
  Excitation energy:                                              10.181762 eV
  Excited state 6 (singlet, A)                                     [converged]
  Term symbol:  7 (1) A                                     R^2 =  3.68910e-13
  Excitation energy:                                              10.513023 eV
  Excited state 7 (singlet, A)                                     [converged]
  Term symbol:  8 (1) A                                     R^2 =  4.38054e-12
  Excitation energy:                                              11.532193 eV
  Excited state 8 (singlet, A)                                     [converged]
  Term symbol:  9 (1) A                                     R^2 =  5.94093e-11
  Excitation energy:                                              12.180006 eV
  Excited state 9 (singlet, A)                                     [converged]
  Term symbol:  10 (1) A                                    R^2 =  2.00019e-09
  Excitation energy:                                              12.433094 eV
  Excited state 10 (singlet, A)                                     [converged]
  Term symbol:  11 (1) A                                    R^2 =  9.00240e-07
  Excitation energy:                                              12.635434 eV
  Excitation energy:                                               0.328455 eV
  Excitation energy:                                               0.393074 eV
  Excitation energy:                                               0.064619 eV
  Excitation energy:                                               1.079018 eV
  Excitation energy:                                               0.750563 eV
  Excitation energy:                                               0.685944 eV
  Excitation energy:                                               1.441601 eV
  Excitation energy:                                               1.113146 eV
  Excitation energy:                                               1.048528 eV
  Excitation energy:                                               0.362584 eV
  Excitation energy:                                               1.772862 eV
  Excitation energy:                                               1.444407 eV
  Excitation energy:                                               1.379788 eV
  Excitation energy:                                               0.693844 eV
  Excitation energy:                                               0.331261 eV
  Excitation energy:                                               2.792032 eV
  Excitation energy:                                               2.463577 eV
  Excitation energy:                                               2.398958 eV
  Excitation energy:                                               1.713014 eV
  Excitation energy:                                               1.350431 eV
  Excitation energy:                                               1.019170 eV
  Excitation energy:                                               3.439845 eV
  Excitation energy:                                               3.111390 eV
  Excitation energy:                                               3.046771 eV
  Excitation energy:                                               2.360828 eV
  Excitation energy:                                               1.998244 eV
  Excitation energy:                                               1.666983 eV
  Excitation energy:                                               0.647813 eV
  Excitation energy:                                               3.692934 eV
  Excitation energy:                                               3.364479 eV
  Excitation energy:                                               3.299860 eV
  Excitation energy:                                               2.613916 eV
  Excitation energy:                                               2.251332 eV
  Excitation energy:                                               1.920072 eV
  Excitation energy:                                               0.900902 eV
  Excitation energy:                                               0.253088 eV
  Excitation energy:                                               3.895273 eV
  Excitation energy:                                               3.566818 eV
  Excitation energy:                                               3.502200 eV
  Excitation energy:                                               2.816256 eV
  Excitation energy:                                               2.453672 eV
  Excitation energy:                                               2.122412 eV
  Excitation energy:                                               1.103242 eV
  Excitation energy:                                               0.455428 eV
  Excitation energy:                                               0.202340 eV

                    Orbital Energies (a.u.)
 --------------------------------------------------------------

 Alpha MOs
 -- Occupied --
-11.2356 -11.2335  -1.0323  -0.7873  -0.6422  -0.5790  -0.5048  -0.3740

          Ground-State Mulliken Net Atomic Charges

     Atom                 Charge (a.u.)
  ----------------------------------------
      1 H                     0.047312
      2 C                    -0.095076
      3 H                     0.047243
      4 C                    -0.099197
      5 H                     0.049118
      6 H                     0.050598
  ----------------------------------------
  Sum of atomic charges =     0.000000

                    Cartesian Multipole Moments
 -----------------------------------------------------------------
    Charge (ESU x 10^10)
                -0.0000
    Dipole Moment (Debye)
         X       0.0097      Y      -0.0053      Z       0.0030
       Tot       0.0115
    Quadrupole Moments (Debye-Ang)
        XX     -12.3101     XY       0.0221     YY     -12.2393
        XZ       0.1489     YZ       0.1990     ZZ     -15.5568

 Total job time:  74.37s(wall), 246.33s(cpu)
        *  Thank you very much for using Q-Chem.  Have a nice day.  *
