 Q-Chem 5.4 (devel), Q-Chem, Inc., Pleasanton, CA (2021)
 Q-Chem 5.4.1 for Intel X86 EM64T Linux

User input:
--------------------------------------------------------------
$comment
generated from CCJob.Templates
$end

$rem
sym_ignore = true
method = adc(2)
ee_states = 10
basis = cc-pVDZ
mem_static = 1024
mem_total = 30000
adc_davidson_maxiter = 900
adc_davidson_conv = 6
adc_print = 3
adc_prop_es = true
adc_prop_es2es = true
adc_prop_tpa = true
molden_format = True
state_analysis = true
print_orbitals = 15
gen_scfman = false
fde_export_density = true
fde_details = 3
$end

$molecule
0 1
H -0.0348278765 -0.2442097827 0.0636489606
C -1.0765972949 -0.5242748755 -0.0023551776
H -1.313264467 -1.5717591607 -0.0757276926
C -2.043634118 0.3926884087 0.0061254933
H -1.8137616575 1.4459188338 0.0804456828
H -3.085977293 0.114931858 -0.0593381042
$end
--------------------------------------------------------------

             Standard Nuclear Orientation (Angstroms)
    I     Atom           X                Y                Z
 ----------------------------------------------------------------
    1      H      -0.0348278765    -0.2442097827     0.0636489606
    2      C      -1.0765972949    -0.5242748755    -0.0023551776
    3      H      -1.3132644670    -1.5717591607    -0.0757276926
    4      C      -2.0436341180     0.3926884087     0.0061254933
    5      H      -1.8137616575     1.4459188338     0.0804456828
    6      H      -3.0859772930     0.1149318580    -0.0593381042
 ----------------------------------------------------------------

   11     -78.0398893249      6.82E-09 Convergence criterion met
 Total energy in the final basis set = -78.03988932
  Excited state 1 (singlet, A)                                     [converged]
  Term symbol:  2 (1) A                                     R^2 =  7.44875e-13
  Excitation energy:                                               8.736900 eV
  Excited state 2 (singlet, A)                                     [converged]
  Term symbol:  3 (1) A                                     R^2 =  4.70735e-13
  Excitation energy:                                               9.061781 eV
  Excited state 3 (singlet, A)                                     [converged]
  Term symbol:  4 (1) A                                     R^2 =  6.83965e-13
  Excitation energy:                                               9.174601 eV
  Excited state 4 (singlet, A)                                     [converged]
  Term symbol:  5 (1) A                                     R^2 =  2.34896e-13
  Excitation energy:                                               9.841085 eV
  Excited state 5 (singlet, A)                                     [converged]
  Term symbol:  6 (1) A                                     R^2 =  2.95596e-13
  Excitation energy:                                              10.216413 eV
  Excited state 6 (singlet, A)                                     [converged]
  Term symbol:  7 (1) A                                     R^2 =  4.79413e-13
  Excitation energy:                                              10.538588 eV
  Excited state 7 (singlet, A)                                     [converged]
  Term symbol:  8 (1) A                                     R^2 =  4.28585e-10
  Excitation energy:                                              11.568067 eV
  Excited state 8 (singlet, A)                                     [converged]
  Term symbol:  9 (1) A                                     R^2 =  1.58770e-10
  Excitation energy:                                              12.171382 eV
  Excited state 9 (singlet, A)                                     [converged]
  Term symbol:  10 (1) A                                    R^2 =  1.02946e-09
  Excitation energy:                                              12.422437 eV
  Excited state 10 (singlet, A)                                     [converged]
  Term symbol:  11 (1) A                                    R^2 =  6.21688e-07
  Excitation energy:                                              12.659548 eV
  Excitation energy:                                               0.324881 eV
  Excitation energy:                                               0.437701 eV
  Excitation energy:                                               0.112820 eV
  Excitation energy:                                               1.104185 eV
  Excitation energy:                                               0.779304 eV
  Excitation energy:                                               0.666485 eV
  Excitation energy:                                               1.479513 eV
  Excitation energy:                                               1.154632 eV
  Excitation energy:                                               1.041812 eV
  Excitation energy:                                               0.375328 eV
  Excitation energy:                                               1.801688 eV
  Excitation energy:                                               1.476807 eV
  Excitation energy:                                               1.363987 eV
  Excitation energy:                                               0.697503 eV
  Excitation energy:                                               0.322175 eV
  Excitation energy:                                               2.831167 eV
  Excitation energy:                                               2.506286 eV
  Excitation energy:                                               2.393466 eV
  Excitation energy:                                               1.726982 eV
  Excitation energy:                                               1.351654 eV
  Excitation energy:                                               1.029479 eV
  Excitation energy:                                               3.434481 eV
  Excitation energy:                                               3.109600 eV
  Excitation energy:                                               2.996781 eV
  Excitation energy:                                               2.330296 eV
  Excitation energy:                                               1.954968 eV
  Excitation energy:                                               1.632793 eV
  Excitation energy:                                               0.603314 eV
  Excitation energy:                                               3.685537 eV
  Excitation energy:                                               3.360656 eV
  Excitation energy:                                               3.247837 eV
  Excitation energy:                                               2.581352 eV
  Excitation energy:                                               2.206024 eV
  Excitation energy:                                               1.883849 eV
  Excitation energy:                                               0.854370 eV
  Excitation energy:                                               0.251056 eV
  Excitation energy:                                               3.922648 eV
  Excitation energy:                                               3.597767 eV
  Excitation energy:                                               3.484947 eV
  Excitation energy:                                               2.818463 eV
  Excitation energy:                                               2.443135 eV
  Excitation energy:                                               2.120960 eV
  Excitation energy:                                               1.091481 eV
  Excitation energy:                                               0.488167 eV
  Excitation energy:                                               0.237111 eV

                    Orbital Energies (a.u.)
 --------------------------------------------------------------

 Alpha MOs
 -- Occupied --
-11.2348 -11.2331  -1.0325  -0.7902  -0.6416  -0.5820  -0.5050  -0.3740

          Ground-State Mulliken Net Atomic Charges

     Atom                 Charge (a.u.)
  ----------------------------------------
      1 H                     0.047957
      2 C                    -0.092586
      3 H                     0.046256
      4 C                    -0.096321
      5 H                     0.047102
      6 H                     0.047591
  ----------------------------------------
  Sum of atomic charges =     0.000000

                    Cartesian Multipole Moments
 -----------------------------------------------------------------
    Charge (ESU x 10^10)
                 0.0000
    Dipole Moment (Debye)
         X      -0.0021      Y      -0.0005      Z       0.0008
       Tot       0.0023
    Quadrupole Moments (Debye-Ang)
        XX     -12.2098     XY      -0.0549     YY     -12.2673
        XZ       0.1531     YZ       0.1934     ZZ     -15.5349

 Total job time:  62.26s(wall), 198.79s(cpu)
        *  Thank you very much for using Q-Chem.  Have a nice day.  *
