 Q-Chem 5.4 (devel), Q-Chem, Inc., Pleasanton, CA (2021)
 Q-Chem 5.4.1 for Intel X86 EM64T Linux

User input:
--------------------------------------------------------------
$comment
generated from CCJob.Templates
$end

$rem
sym_ignore = true
method = adc(2)
ee_states = 10
basis = cc-pVDZ
mem_static = 1024
mem_total = 40000
adc_davidson_maxiter = 900
adc_davidson_conv = 6
adc_print = 3
adc_prop_es = true
adc_prop_es2es = true
adc_prop_tpa = true
molden_format = True
state_analysis = true
print_orbitals = 15
gen_scfman = false
fde_export_density = true
fde_details = 3
$end

$molecule
0 1
H -0.0248278765 -0.2442097827 0.0636489606
C -1.0765972949 -0.5242748755 -0.0023551776
H -1.313264467 -1.5767591607 -0.0757276926
C -2.043634118 0.3926884087 0.0061254933
H -1.8137616575 1.4459188338 0.0804456828
H -3.085977293 0.114931858 -0.0593381042
$end
--------------------------------------------------------------

             Standard Nuclear Orientation (Angstroms)
    I     Atom           X                Y                Z
 ----------------------------------------------------------------
    1      H      -0.0248278765    -0.2442097827     0.0636489606
    2      C      -1.0765972949    -0.5242748755    -0.0023551776
    3      H      -1.3132644670    -1.5767591607    -0.0757276926
    4      C      -2.0436341180     0.3926884087     0.0061254933
    5      H      -1.8137616575     1.4459188338     0.0804456828
    6      H      -3.0859772930     0.1149318580    -0.0593381042
 ----------------------------------------------------------------

   11     -78.0399016010      7.89E-09 Convergence criterion met
 Total energy in the final basis set = -78.03990160
  Excited state 1 (singlet, A)                                     [converged]
  Term symbol:  2 (1) A                                     R^2 =  6.89046e-14
  Excitation energy:                                               8.737597 eV
  Excited state 2 (singlet, A)                                     [converged]
  Term symbol:  3 (1) A                                     R^2 =  2.48777e-13
  Excitation energy:                                               9.039732 eV
  Excited state 3 (singlet, A)                                     [converged]
  Term symbol:  4 (1) A                                     R^2 =  8.92800e-14
  Excitation energy:                                               9.163248 eV
  Excited state 4 (singlet, A)                                     [converged]
  Term symbol:  5 (1) A                                     R^2 =  1.48612e-13
  Excitation energy:                                               9.816252 eV
  Excited state 5 (singlet, A)                                     [converged]
  Term symbol:  6 (1) A                                     R^2 =  1.78157e-13
  Excitation energy:                                              10.204322 eV
  Excited state 6 (singlet, A)                                     [converged]
  Term symbol:  7 (1) A                                     R^2 =  4.82050e-13
  Excitation energy:                                              10.530700 eV
  Excited state 7 (singlet, A)                                     [converged]
  Term symbol:  8 (1) A                                     R^2 =  5.38432e-11
  Excitation energy:                                              11.534648 eV
  Excited state 8 (singlet, A)                                     [converged]
  Term symbol:  9 (1) A                                     R^2 =  1.39377e-10
  Excitation energy:                                              12.153074 eV
  Excited state 9 (singlet, A)                                     [converged]
  Term symbol:  10 (1) A                                    R^2 =  1.74639e-09
  Excitation energy:                                              12.406559 eV
  Excited state 10 (singlet, A)                                     [converged]
  Term symbol:  11 (1) A                                    R^2 =  7.96383e-07
  Excitation energy:                                              12.615807 eV
  Excitation energy:                                               0.302135 eV
  Excitation energy:                                               0.425651 eV
  Excitation energy:                                               0.123516 eV
  Excitation energy:                                               1.078654 eV
  Excitation energy:                                               0.776519 eV
  Excitation energy:                                               0.653003 eV
  Excitation energy:                                               1.466725 eV
  Excitation energy:                                               1.164590 eV
  Excitation energy:                                               1.041074 eV
  Excitation energy:                                               0.388071 eV
  Excitation energy:                                               1.793103 eV
  Excitation energy:                                               1.490968 eV
  Excitation energy:                                               1.367452 eV
  Excitation energy:                                               0.714448 eV
  Excitation energy:                                               0.326378 eV
  Excitation energy:                                               2.797050 eV
  Excitation energy:                                               2.494915 eV
  Excitation energy:                                               2.371399 eV
  Excitation energy:                                               1.718396 eV
  Excitation energy:                                               1.330325 eV
  Excitation energy:                                               1.003948 eV
  Excitation energy:                                               3.415477 eV
  Excitation energy:                                               3.113341 eV
  Excitation energy:                                               2.989825 eV
  Excitation energy:                                               2.336822 eV
  Excitation energy:                                               1.948751 eV
  Excitation energy:                                               1.622374 eV
  Excitation energy:                                               0.618426 eV
  Excitation energy:                                               3.668961 eV
  Excitation energy:                                               3.366826 eV
  Excitation energy:                                               3.243310 eV
  Excitation energy:                                               2.590307 eV
  Excitation energy:                                               2.202236 eV
  Excitation energy:                                               1.875859 eV
  Excitation energy:                                               0.871911 eV
  Excitation energy:                                               0.253485 eV
  Excitation energy:                                               3.878210 eV
  Excitation energy:                                               3.576074 eV
  Excitation energy:                                               3.452558 eV
  Excitation energy:                                               2.799555 eV
  Excitation energy:                                               2.411484 eV
  Excitation energy:                                               2.085107 eV
  Excitation energy:                                               1.081159 eV
  Excitation energy:                                               0.462733 eV
  Excitation energy:                                               0.209248 eV

                    Orbital Energies (a.u.)
 --------------------------------------------------------------

 Alpha MOs
 -- Occupied --
-11.2359 -11.2339  -1.0320  -0.7889  -0.6403  -0.5817  -0.5038  -0.3741

          Ground-State Mulliken Net Atomic Charges

     Atom                 Charge (a.u.)
  ----------------------------------------
      1 H                     0.050837
      2 C                    -0.100107
      3 H                     0.047972
      4 C                    -0.093902
      5 H                     0.047346
      6 H                     0.047854
  ----------------------------------------
  Sum of atomic charges =     0.000000

                    Cartesian Multipole Moments
 -----------------------------------------------------------------
    Charge (ESU x 10^10)
                -0.0000
    Dipole Moment (Debye)
         X      -0.0061      Y       0.0009      Z       0.0006
       Tot       0.0062
    Quadrupole Moments (Debye-Ang)
        XX     -12.2000     XY      -0.0581     YY     -12.2736
        XZ       0.1535     YZ       0.1937     ZZ     -15.5532

 Total job time:  70.77s(wall), 196.36s(cpu)
        *  Thank you very much for using Q-Chem.  Have a nice day.  *
