 Q-Chem 5.4 (devel), Q-Chem, Inc., Pleasanton, CA (2021)
 Q-Chem 5.4.1 for Intel X86 EM64T Linux

User input:
--------------------------------------------------------------
$comment
generated from CCJob.Templates
$end

$rem
sym_ignore = true
method = adc(2)
ee_states = 10
basis = cc-pVDZ
mem_static = 1024
mem_total = 40000
adc_davidson_maxiter = 900
adc_davidson_conv = 6
adc_print = 3
adc_prop_es = true
adc_prop_es2es = true
adc_prop_tpa = true
molden_format = True
state_analysis = true
print_orbitals = 15
gen_scfman = false
fde_export_density = true
fde_details = 3
$end

$molecule
0 1
H -0.0197125716957914 -0.24651490592411335 0.06524270929395265
C -1.0785368747673325 -0.5250752072657229 -0.0024325483963692136
H -1.3008353527191623 -1.5911923602965823 -0.07756667450675024
C -2.044133420832706 0.3945000663656813 0.006679527896367125
H -1.8218752638808176 1.460626117396698 0.08179329600675671
H -3.102971015004097 0.1159496274241409 -0.06091724799395182
$end
--------------------------------------------------------------

             Standard Nuclear Orientation (Angstroms)
    I     Atom           X                Y                Z
 ----------------------------------------------------------------
    1      H      -0.0197125717    -0.2465149059     0.0652427093
    2      C      -1.0785368748    -0.5250752073    -0.0024325484
    3      H      -1.3008353527    -1.5911923603    -0.0775666745
    4      C      -2.0441334208     0.3945000664     0.0066795279
    5      H      -1.8218752639     1.4606261174     0.0817932960
    6      H      -3.1029710150     0.1159496274    -0.0609172480
 ----------------------------------------------------------------

   10     -78.0396332167      3.83E-09 Convergence criterion met
 Total energy in the final basis set = -78.03963322
  Excited state 1 (singlet, A)                                     [converged]
  Term symbol:  2 (1) A                                     R^2 =  1.80948e-13
  Excitation energy:                                               8.731825 eV
  Excited state 2 (singlet, A)                                     [converged]
  Term symbol:  3 (1) A                                     R^2 =  4.23310e-13
  Excitation energy:                                               8.952181 eV
  Excited state 3 (singlet, A)                                     [converged]
  Term symbol:  4 (1) A                                     R^2 =  1.86152e-13
  Excitation energy:                                               9.141635 eV
  Excited state 4 (singlet, A)                                     [converged]
  Term symbol:  5 (1) A                                     R^2 =  2.13853e-13
  Excitation energy:                                               9.737811 eV
  Excited state 5 (singlet, A)                                     [converged]
  Term symbol:  6 (1) A                                     R^2 =  2.35185e-13
  Excitation energy:                                              10.158835 eV
  Excited state 6 (singlet, A)                                     [converged]
  Term symbol:  7 (1) A                                     R^2 =  4.20747e-13
  Excitation energy:                                              10.521123 eV
  Excited state 7 (singlet, A)                                     [converged]
  Term symbol:  8 (1) A                                     R^2 =  5.59312e-10
  Excitation energy:                                              11.433674 eV
  Excited state 8 (singlet, A)                                     [converged]
  Term symbol:  9 (1) A                                     R^2 =  3.37694e-10
  Excitation energy:                                              12.068169 eV
  Excited state 9 (singlet, A)                                     [converged]
  Term symbol:  10 (1) A                                    R^2 =  3.28590e-09
  Excitation energy:                                              12.346761 eV
  Excited state 10 (singlet, A)                                     [converged]
  Term symbol:  11 (1) A                                    R^2 =  4.88266e-07
  Excitation energy:                                              12.475715 eV
  Excitation energy:                                               0.220356 eV
  Excitation energy:                                               0.409810 eV
  Excitation energy:                                               0.189454 eV
  Excitation energy:                                               1.005986 eV
  Excitation energy:                                               0.785630 eV
  Excitation energy:                                               0.596176 eV
  Excitation energy:                                               1.427010 eV
  Excitation energy:                                               1.206654 eV
  Excitation energy:                                               1.017200 eV
  Excitation energy:                                               0.421024 eV
  Excitation energy:                                               1.789298 eV
  Excitation energy:                                               1.568942 eV
  Excitation energy:                                               1.379488 eV
  Excitation energy:                                               0.783312 eV
  Excitation energy:                                               0.362287 eV
  Excitation energy:                                               2.701849 eV
  Excitation energy:                                               2.481493 eV
  Excitation energy:                                               2.292039 eV
  Excitation energy:                                               1.695863 eV
  Excitation energy:                                               1.274839 eV
  Excitation energy:                                               0.912551 eV
  Excitation energy:                                               3.336344 eV
  Excitation energy:                                               3.115988 eV
  Excitation energy:                                               2.926534 eV
  Excitation energy:                                               2.330358 eV
  Excitation energy:                                               1.909334 eV
  Excitation energy:                                               1.547046 eV
  Excitation energy:                                               0.634495 eV
  Excitation energy:                                               3.614936 eV
  Excitation energy:                                               3.394580 eV
  Excitation energy:                                               3.205126 eV
  Excitation energy:                                               2.608950 eV
  Excitation energy:                                               2.187926 eV
  Excitation energy:                                               1.825638 eV
  Excitation energy:                                               0.913087 eV
  Excitation energy:                                               0.278592 eV
  Excitation energy:                                               3.743890 eV
  Excitation energy:                                               3.523534 eV
  Excitation energy:                                               3.334080 eV
  Excitation energy:                                               2.737904 eV
  Excitation energy:                                               2.316880 eV
  Excitation energy:                                               1.954592 eV
  Excitation energy:                                               1.042041 eV
  Excitation energy:                                               0.407546 eV
  Excitation energy:                                               0.128954 eV

                    Orbital Energies (a.u.)
 --------------------------------------------------------------

 Alpha MOs
 -- Occupied --
-11.2388 -11.2372  -1.0299  -0.7859  -0.6350  -0.5824  -0.4995  -0.3744

          Ground-State Mulliken Net Atomic Charges

     Atom                 Charge (a.u.)
  ----------------------------------------
      1 H                     0.052830
      2 C                    -0.104732
      3 H                     0.051907
      4 C                    -0.104740
      5 H                     0.051905
      6 H                     0.052829
  ----------------------------------------
  Sum of atomic charges =     0.000000

                    Cartesian Multipole Moments
 -----------------------------------------------------------------
    Charge (ESU x 10^10)
                -0.0000
    Dipole Moment (Debye)
         X      -0.0000      Y       0.0000      Z       0.0000
       Tot       0.0000
    Quadrupole Moments (Debye-Ang)
        XX     -12.2540     XY      -0.1056     YY     -12.2510
        XZ       0.1556     YZ       0.1991     ZZ     -15.6098

 Total job time:  141.45s(wall), 428.98s(cpu)
        *  Thank you very much for using Q-Chem.  Have a nice day.  *
