 Q-Chem 5.4 (devel), Q-Chem, Inc., Pleasanton, CA (2021)
 Q-Chem 5.4.1 for Intel X86 EM64T Linux

User input:
--------------------------------------------------------------
$comment
generated from CCJob.Templates
$end

$rem
sym_ignore = true
method = adc(2)
ee_states = 10
basis = cc-pVDZ
mem_static = 1024
mem_total = 40000
adc_davidson_maxiter = 900
adc_davidson_conv = 6
adc_print = 3
adc_prop_es = true
adc_prop_es2es = true
adc_prop_tpa = true
molden_format = True
state_analysis = true
print_orbitals = 15
gen_scfman = false
fde_export_density = true
fde_details = 3
$end

$molecule
0 1
H -0.021304299570814644 -0.24607804979191042 0.06519299730794983
C -1.0760970905817777 -0.5261405555070987 -0.0023799484020361763
H -1.3020894088067054 -1.5933288802345225 -0.07775571450719013
C -2.046573969018226 0.39556463860710106 0.00662689990203762
H -1.8206207197932824 1.4627648813345264 0.0819824640071906
H -3.1013771431291843 0.1155131952918979 -0.060867556007954175
$end
--------------------------------------------------------------

             Standard Nuclear Orientation (Angstroms)
    I     Atom           X                Y                Z
 ----------------------------------------------------------------
    1      H      -0.0213042996    -0.2460780498     0.0651929973
    2      C      -1.0760970906    -0.5261405555    -0.0023799484
    3      H      -1.3020894088    -1.5933288802    -0.0777557145
    4      C      -2.0465739690     0.3955646386     0.0066268999
    5      H      -1.8206207198     1.4627648813     0.0819824640
    6      H      -3.1013771431     0.1155131953    -0.0608675560
 ----------------------------------------------------------------

   10     -78.0395080012      3.96E-09 Convergence criterion met
 Total energy in the final basis set = -78.03950800
  Excited state 1 (singlet, A)                                     [converged]
  Term symbol:  2 (1) A                                     R^2 =  4.65397e-10
  Excitation energy:                                               8.688788 eV
  Excited state 2 (singlet, A)                                     [converged]
  Term symbol:  3 (1) A                                     R^2 =  9.71492e-13
  Excitation energy:                                               8.954970 eV
  Excited state 3 (singlet, A)                                     [converged]
  Term symbol:  4 (1) A                                     R^2 =  1.40828e-11
  Excitation energy:                                               9.116587 eV
  Excited state 4 (singlet, A)                                     [converged]
  Term symbol:  5 (1) A                                     R^2 =  2.50477e-12
  Excitation energy:                                               9.734379 eV
  Excited state 5 (singlet, A)                                     [converged]
  Term symbol:  6 (1) A                                     R^2 =  4.76533e-11
  Excitation energy:                                              10.128050 eV
  Excited state 6 (singlet, A)                                     [converged]
  Term symbol:  7 (1) A                                     R^2 =  2.35038e-10
  Excitation energy:                                              10.473223 eV
  Excited state 7 (singlet, A)                                     [converged]
  Term symbol:  8 (1) A                                     R^2 =  4.73144e-07
  Excitation energy:                                              11.459097 eV
  Excited state 8 (singlet, A)                                     [converged]
  Term symbol:  9 (1) A                                     R^2 =  7.32174e-09
  Excitation energy:                                              12.043181 eV
  Excited state 9 (singlet, A)                                     [converged]
  Term symbol:  10 (1) A                                    R^2 =  1.86593e-08
  Excitation energy:                                              12.319946 eV
  Excited state 10 (singlet, A)                                     [converged]
  Term symbol:  11 (1) A                                    R^2 =  5.45649e-07
  Excitation energy:                                              12.517432 eV
  Excitation energy:                                               0.266183 eV
  Excitation energy:                                               0.427800 eV
  Excitation energy:                                               0.161617 eV
  Excitation energy:                                               1.045591 eV
  Excitation energy:                                               0.779408 eV
  Excitation energy:                                               0.617791 eV
  Excitation energy:                                               1.439262 eV
  Excitation energy:                                               1.173080 eV
  Excitation energy:                                               1.011462 eV
  Excitation energy:                                               0.393671 eV
  Excitation energy:                                               1.784435 eV
  Excitation energy:                                               1.518253 eV
  Excitation energy:                                               1.356636 eV
  Excitation energy:                                               0.738844 eV
  Excitation energy:                                               0.345173 eV
  Excitation energy:                                               2.770309 eV
  Excitation energy:                                               2.504127 eV
  Excitation energy:                                               2.342510 eV
  Excitation energy:                                               1.724718 eV
  Excitation energy:                                               1.331047 eV
  Excitation energy:                                               0.985874 eV
  Excitation energy:                                               3.354394 eV
  Excitation energy:                                               3.088211 eV
  Excitation energy:                                               2.926594 eV
  Excitation energy:                                               2.308803 eV
  Excitation energy:                                               1.915132 eV
  Excitation energy:                                               1.569959 eV
  Excitation energy:                                               0.584085 eV
  Excitation energy:                                               3.631158 eV
  Excitation energy:                                               3.364976 eV
  Excitation energy:                                               3.203359 eV
  Excitation energy:                                               2.585567 eV
  Excitation energy:                                               2.191896 eV
  Excitation energy:                                               1.846723 eV
  Excitation energy:                                               0.860849 eV
  Excitation energy:                                               0.276765 eV
  Excitation energy:                                               3.828644 eV
  Excitation energy:                                               3.562462 eV
  Excitation energy:                                               3.400844 eV
  Excitation energy:                                               2.783053 eV
  Excitation energy:                                               2.389382 eV
  Excitation energy:                                               2.044209 eV
  Excitation energy:                                               1.058335 eV
  Excitation energy:                                               0.474250 eV
  Excitation energy:                                               0.197486 eV

                    Orbital Energies (a.u.)
 --------------------------------------------------------------

 Alpha MOs
 -- Occupied --
-11.2393 -11.2377  -1.0286  -0.7864  -0.6353  -0.5810  -0.5010  -0.3732

          Ground-State Mulliken Net Atomic Charges

     Atom                 Charge (a.u.)
  ----------------------------------------
      1 H                     0.052625
      2 C                    -0.105253
      3 H                     0.052634
      4 C                    -0.105261
      5 H                     0.052633
      6 H                     0.052623
  ----------------------------------------
  Sum of atomic charges =     0.000000

                    Cartesian Multipole Moments
 -----------------------------------------------------------------
    Charge (ESU x 10^10)
                -0.0000
    Dipole Moment (Debye)
         X      -0.0000      Y       0.0000      Z       0.0000
       Tot       0.0000
    Quadrupole Moments (Debye-Ang)
        XX     -12.2432     XY      -0.0940     YY     -12.2561
        XZ       0.1576     YZ       0.2003     ZZ     -15.6256

 Total job time:  122.81s(wall), 374.53s(cpu)
        *  Thank you very much for using Q-Chem.  Have a nice day.  *
