 Q-Chem 5.4 (devel), Q-Chem, Inc., Pleasanton, CA (2021)
 Q-Chem 5.4.1 for Intel X86 EM64T Linux

User input:
--------------------------------------------------------------
$comment
generated from CCJob.Templates
$end

$rem
sym_ignore = true
method = adc(2)
ee_states = 10
basis = cc-pVDZ
mem_static = 1024
mem_total = 40000
adc_davidson_maxiter = 900
adc_davidson_conv = 6
adc_print = 3
adc_prop_es = true
adc_prop_es2es = true
adc_prop_tpa = true
molden_format = True
state_analysis = true
print_orbitals = 15
gen_scfman = false
fde_export_density = true
fde_details = 3
$end

$molecule
0 1
H -0.0348278765 -0.2442097827 0.0636489606
C -1.0765972949 -0.5242748755 -0.0023551776
H -1.313264467 -1.5767591607 -0.0757276926
C -2.043634118 0.3926884087 0.0061254933
H -1.8237616575 1.4459188338 0.0804456828
H -3.085977293 0.114931858 -0.0593381042
$end
--------------------------------------------------------------

             Standard Nuclear Orientation (Angstroms)
    I     Atom           X                Y                Z
 ----------------------------------------------------------------
    1      H      -0.0348278765    -0.2442097827     0.0636489606
    2      C      -1.0765972949    -0.5242748755    -0.0023551776
    3      H      -1.3132644670    -1.5767591607    -0.0757276926
    4      C      -2.0436341180     0.3926884087     0.0061254933
    5      H      -1.8237616575     1.4459188338     0.0804456828
    6      H      -3.0859772930     0.1149318580    -0.0593381042
 ----------------------------------------------------------------

   11     -78.0399233011      5.98E-09 Convergence criterion met
 Total energy in the final basis set = -78.03992330
  Excited state 1 (singlet, A)                                     [converged]
  Term symbol:  2 (1) A                                     R^2 =  7.76903e-13
  Excitation energy:                                               8.736358 eV
  Excited state 2 (singlet, A)                                     [converged]
  Term symbol:  3 (1) A                                     R^2 =  4.92998e-13
  Excitation energy:                                               9.048761 eV
  Excited state 3 (singlet, A)                                     [converged]
  Term symbol:  4 (1) A                                     R^2 =  6.43903e-13
  Excitation energy:                                               9.179072 eV
  Excited state 4 (singlet, A)                                     [converged]
  Term symbol:  5 (1) A                                     R^2 =  4.25684e-13
  Excitation energy:                                               9.836346 eV
  Excited state 5 (singlet, A)                                     [converged]
  Term symbol:  6 (1) A                                     R^2 =  4.44783e-13
  Excitation energy:                                              10.217995 eV
  Excited state 6 (singlet, A)                                     [converged]
  Term symbol:  7 (1) A                                     R^2 =  8.40994e-13
  Excitation energy:                                              10.541898 eV
  Excited state 7 (singlet, A)                                     [converged]
  Term symbol:  8 (1) A                                     R^2 =  9.78052e-10
  Excitation energy:                                              11.560055 eV
  Excited state 8 (singlet, A)                                     [converged]
  Term symbol:  9 (1) A                                     R^2 =  1.55096e-10
  Excitation energy:                                              12.160397 eV
  Excited state 9 (singlet, A)                                     [converged]
  Term symbol:  10 (1) A                                    R^2 =  1.41906e-09
  Excitation energy:                                              12.413250 eV
  Excited state 10 (singlet, A)                                     [converged]
  Term symbol:  11 (1) A                                    R^2 =  4.45906e-07
  Excitation energy:                                              12.645998 eV
  Excitation energy:                                               0.312403 eV
  Excitation energy:                                               0.442714 eV
  Excitation energy:                                               0.130311 eV
  Excitation energy:                                               1.099988 eV
  Excitation energy:                                               0.787585 eV
  Excitation energy:                                               0.657274 eV
  Excitation energy:                                               1.481637 eV
  Excitation energy:                                               1.169234 eV
  Excitation energy:                                               1.038923 eV
  Excitation energy:                                               0.381649 eV
  Excitation energy:                                               1.805540 eV
  Excitation energy:                                               1.493137 eV
  Excitation energy:                                               1.362826 eV
  Excitation energy:                                               0.705552 eV
  Excitation energy:                                               0.323903 eV
  Excitation energy:                                               2.823698 eV
  Excitation energy:                                               2.511295 eV
  Excitation energy:                                               2.380984 eV
  Excitation energy:                                               1.723710 eV
  Excitation energy:                                               1.342061 eV
  Excitation energy:                                               1.018158 eV
  Excitation energy:                                               3.424040 eV
  Excitation energy:                                               3.111637 eV
  Excitation energy:                                               2.981325 eV
  Excitation energy:                                               2.324051 eV
  Excitation energy:                                               1.942403 eV
  Excitation energy:                                               1.618499 eV
  Excitation energy:                                               0.600342 eV
  Excitation energy:                                               3.676892 eV
  Excitation energy:                                               3.364489 eV
  Excitation energy:                                               3.234178 eV
  Excitation energy:                                               2.576904 eV
  Excitation energy:                                               2.195255 eV
  Excitation energy:                                               1.871352 eV
  Excitation energy:                                               0.853194 eV
  Excitation energy:                                               0.252852 eV
  Excitation energy:                                               3.909640 eV
  Excitation energy:                                               3.597237 eV
  Excitation energy:                                               3.466926 eV
  Excitation energy:                                               2.809652 eV
  Excitation energy:                                               2.428003 eV
  Excitation energy:                                               2.104100 eV
  Excitation energy:                                               1.085942 eV
  Excitation energy:                                               0.485600 eV
  Excitation energy:                                               0.232748 eV

                    Orbital Energies (a.u.)
 --------------------------------------------------------------

 Alpha MOs
 -- Occupied --
-11.2351 -11.2334  -1.0323  -0.7904  -0.6408  -0.5826  -0.5045  -0.3740

          Ground-State Mulliken Net Atomic Charges

     Atom                 Charge (a.u.)
  ----------------------------------------
      1 H                     0.048235
      2 C                    -0.094980
      3 H                     0.047874
      4 C                    -0.094926
      5 H                     0.046619
      6 H                     0.047178
  ----------------------------------------
  Sum of atomic charges =     0.000000

                    Cartesian Multipole Moments
 -----------------------------------------------------------------
    Charge (ESU x 10^10)
                 0.0000
    Dipole Moment (Debye)
         X      -0.0038      Y       0.0041      Z       0.0016
       Tot       0.0058
    Quadrupole Moments (Debye-Ang)
        XX     -12.2123     XY      -0.0811     YY     -12.2557
        XZ       0.1505     YZ       0.1936     ZZ     -15.5380

 Total job time:  65.37s(wall), 178.13s(cpu)
        *  Thank you very much for using Q-Chem.  Have a nice day.  *
