 Q-Chem 5.4 (devel), Q-Chem, Inc., Pleasanton, CA (2021)
 Q-Chem 5.4.1 for Intel X86 EM64T Linux

User input:
--------------------------------------------------------------
$comment
generated from CCJob.Templates
$end

$rem
sym_ignore = true
method = adc(2)
ee_states = 10
basis = cc-pVDZ
mem_static = 1024
mem_total = 30000
adc_davidson_maxiter = 900
adc_davidson_conv = 6
adc_print = 3
adc_prop_es = true
adc_prop_es2es = true
adc_prop_tpa = true
molden_format = True
state_analysis = true
print_orbitals = 15
gen_scfman = false
fde_export_density = true
fde_details = 3
$end

$molecule
0 1
H -0.0348278765 -0.2442097827 0.0636489606
C -1.0765972949 -0.5242748755 -0.0023551776
H -1.313264467 -1.5767591607 -0.0757276926
C -2.048634118 0.3926884087 0.0061254933
H -1.8137616575 1.4459188338 0.0804456828
H -3.085977293 0.114931858 -0.0593381042
$end
--------------------------------------------------------------

             Standard Nuclear Orientation (Angstroms)
    I     Atom           X                Y                Z
 ----------------------------------------------------------------
    1      H      -0.0348278765    -0.2442097827     0.0636489606
    2      C      -1.0765972949    -0.5242748755    -0.0023551776
    3      H      -1.3132644670    -1.5767591607    -0.0757276926
    4      C      -2.0486341180     0.3926884087     0.0061254933
    5      H      -1.8137616575     1.4459188338     0.0804456828
    6      H      -3.0859772930     0.1149318580    -0.0593381042
 ----------------------------------------------------------------

   11     -78.0397554028      7.40E-09 Convergence criterion met
 Total energy in the final basis set = -78.03975540
  Excited state 1 (singlet, A)                                     [converged]
  Term symbol:  2 (1) A                                     R^2 =  2.61235e-13
  Excitation energy:                                               8.705590 eV
  Excited state 2 (singlet, A)                                     [converged]
  Term symbol:  3 (1) A                                     R^2 =  4.44382e-14
  Excitation energy:                                               9.054973 eV
  Excited state 3 (singlet, A)                                     [converged]
  Term symbol:  4 (1) A                                     R^2 =  1.27519e-13
  Excitation energy:                                               9.155360 eV
  Excited state 4 (singlet, A)                                     [converged]
  Term symbol:  5 (1) A                                     R^2 =  3.12674e-13
  Excitation energy:                                               9.831908 eV
  Excited state 5 (singlet, A)                                     [converged]
  Term symbol:  6 (1) A                                     R^2 =  2.56385e-13
  Excitation energy:                                              10.187722 eV
  Excited state 6 (singlet, A)                                     [converged]
  Term symbol:  7 (1) A                                     R^2 =  4.38694e-13
  Excitation energy:                                              10.508772 eV
  Excited state 7 (singlet, A)                                     [converged]
  Term symbol:  8 (1) A                                     R^2 =  5.92119e-11
  Excitation energy:                                              11.577415 eV
  Excited state 8 (singlet, A)                                     [converged]
  Term symbol:  9 (1) A                                     R^2 =  2.33874e-12
  Excitation energy:                                              12.146321 eV
  Excited state 9 (singlet, A)                                     [converged]
  Term symbol:  10 (1) A                                    R^2 =  3.31663e-11
  Excitation energy:                                              12.397862 eV
  Excited state 10 (singlet, A)                                     [converged]
  Term symbol:  11 (1) A                                    R^2 =  6.03174e-07
  Excitation energy:                                              12.676564 eV
  Excitation energy:                                               0.349383 eV
  Excitation energy:                                               0.449770 eV
  Excitation energy:                                               0.100387 eV
  Excitation energy:                                               1.126318 eV
  Excitation energy:                                               0.776935 eV
  Excitation energy:                                               0.676548 eV
  Excitation energy:                                               1.482131 eV
  Excitation energy:                                               1.132749 eV
  Excitation energy:                                               1.032362 eV
  Excitation energy:                                               0.355814 eV
  Excitation energy:                                               1.803182 eV
  Excitation energy:                                               1.453800 eV
  Excitation energy:                                               1.353413 eV
  Excitation energy:                                               0.676865 eV
  Excitation energy:                                               0.321051 eV
  Excitation energy:                                               2.871824 eV
  Excitation energy:                                               2.522442 eV
  Excitation energy:                                               2.422055 eV
  Excitation energy:                                               1.745507 eV
  Excitation energy:                                               1.389693 eV
  Excitation energy:                                               1.068642 eV
  Excitation energy:                                               3.440731 eV
  Excitation energy:                                               3.091348 eV
  Excitation energy:                                               2.990961 eV
  Excitation energy:                                               2.314413 eV
  Excitation energy:                                               1.958599 eV
  Excitation energy:                                               1.637549 eV
  Excitation energy:                                               0.568906 eV
  Excitation energy:                                               3.692272 eV
  Excitation energy:                                               3.342889 eV
  Excitation energy:                                               3.242502 eV
  Excitation energy:                                               2.565954 eV
  Excitation energy:                                               2.210141 eV
  Excitation energy:                                               1.889090 eV
  Excitation energy:                                               0.820447 eV
  Excitation energy:                                               0.251541 eV
  Excitation energy:                                               3.970974 eV
  Excitation energy:                                               3.621592 eV
  Excitation energy:                                               3.521205 eV
  Excitation energy:                                               2.844656 eV
  Excitation energy:                                               2.488843 eV
  Excitation energy:                                               2.167792 eV
  Excitation energy:                                               1.099150 eV
  Excitation energy:                                               0.530243 eV
  Excitation energy:                                               0.278702 eV

                    Orbital Energies (a.u.)
 --------------------------------------------------------------

 Alpha MOs
 -- Occupied --
-11.2355 -11.2338  -1.0314  -0.7904  -0.6413  -0.5811  -0.5056  -0.3731

          Ground-State Mulliken Net Atomic Charges

     Atom                 Charge (a.u.)
  ----------------------------------------
      1 H                     0.048510
      2 C                    -0.096781
      3 H                     0.047729
      4 C                    -0.094058
      5 H                     0.047580
      6 H                     0.047020
  ----------------------------------------
  Sum of atomic charges =     0.000000

                    Cartesian Multipole Moments
 -----------------------------------------------------------------
    Charge (ESU x 10^10)
                 0.0000
    Dipole Moment (Debye)
         X      -0.0029      Y       0.0000      Z       0.0007
       Tot       0.0029
    Quadrupole Moments (Debye-Ang)
        XX     -12.1920     XY      -0.0518     YY     -12.2799
        XZ       0.1552     YZ       0.1933     ZZ     -15.5509

 Total job time:  116.24s(wall), 347.97s(cpu)
        *  Thank you very much for using Q-Chem.  Have a nice day.  *
