 Q-Chem 5.4 (devel), Q-Chem, Inc., Pleasanton, CA (2021)
 Q-Chem 5.4.1 for Intel X86 EM64T Linux

User input:
--------------------------------------------------------------
$comment
generated from CCJob.Templates
$end

$rem
sym_ignore = true
method = adc(2)
ee_states = 10
basis = cc-pVDZ
mem_static = 1024
mem_total = 40000
adc_davidson_maxiter = 900
adc_davidson_conv = 6
adc_print = 3
adc_prop_es = true
adc_prop_es2es = true
adc_prop_tpa = true
molden_format = True
state_analysis = true
print_orbitals = 15
gen_scfman = false
fde_export_density = true
fde_details = 3
$end

$molecule
0 1
H -0.0348278765 -0.2442097827 0.0636489606
C -1.0765972949 -0.5242748755 -0.0023551776
H -1.313264467 -1.5767591607 -0.0757276926
C -2.043634118 0.43268840869999997 0.0061254933
H -1.8137616575 1.4459188338 0.0804456828
H -3.085977293 0.114931858 -0.0593381042
$end
--------------------------------------------------------------

             Standard Nuclear Orientation (Angstroms)
    I     Atom           X                Y                Z
 ----------------------------------------------------------------
    1      H      -0.0348278765    -0.2442097827     0.0636489606
    2      C      -1.0765972949    -0.5242748755    -0.0023551776
    3      H      -1.3132644670    -1.5767591607    -0.0757276926
    4      C      -2.0436341180     0.4326884087     0.0061254933
    5      H      -1.8137616575     1.4459188338     0.0804456828
    6      H      -3.0859772930     0.1149318580    -0.0593381042
 ----------------------------------------------------------------

   11     -78.0365945545      6.87E-09 Convergence criterion met
 Total energy in the final basis set = -78.03659455
  Excited state 1 (singlet, A)                                     [converged]
  Term symbol:  2 (1) A                                     R^2 =  3.53229e-14
  Excitation energy:                                               8.499050 eV
  Excited state 2 (singlet, A)                                     [converged]
  Term symbol:  3 (1) A                                     R^2 =  4.49331e-14
  Excitation energy:                                               9.018814 eV
  Excited state 3 (singlet, A)                                     [converged]
  Term symbol:  4 (1) A                                     R^2 =  5.26769e-14
  Excitation energy:                                               9.065619 eV
  Excited state 4 (singlet, A)                                     [converged]
  Term symbol:  5 (1) A                                     R^2 =  4.36177e-14
  Excitation energy:                                               9.822396 eV
  Excited state 5 (singlet, A)                                     [converged]
  Term symbol:  6 (1) A                                     R^2 =  6.68984e-14
  Excitation energy:                                              10.009950 eV
  Excited state 6 (singlet, A)                                     [converged]
  Term symbol:  7 (1) A                                     R^2 =  2.68045e-13
  Excitation energy:                                              10.364997 eV
  Excited state 7 (singlet, A)                                     [converged]
  Term symbol:  8 (1) A                                     R^2 =  8.11126e-13
  Excitation energy:                                              11.691128 eV
  Excited state 8 (singlet, A)                                     [converged]
  Term symbol:  9 (1) A                                     R^2 =  2.13553e-13
  Excitation energy:                                              12.021749 eV
  Excited state 9 (singlet, A)                                     [converged]
  Term symbol:  10 (1) A                                    R^2 =  2.26659e-13
  Excitation energy:                                              12.271385 eV
  Excited state 10 (singlet, A)                                     [converged]
  Term symbol:  11 (1) A                                    R^2 =  8.52713e-07
  Excitation energy:                                              12.848104 eV
  Excitation energy:                                               0.519764 eV
  Excitation energy:                                               0.566569 eV
  Excitation energy:                                               0.046805 eV
  Excitation energy:                                               1.323346 eV
  Excitation energy:                                               0.803582 eV
  Excitation energy:                                               0.756777 eV
  Excitation energy:                                               1.510900 eV
  Excitation energy:                                               0.991136 eV
  Excitation energy:                                               0.944331 eV
  Excitation energy:                                               0.187554 eV
  Excitation energy:                                               1.865947 eV
  Excitation energy:                                               1.346182 eV
  Excitation energy:                                               1.299377 eV
  Excitation energy:                                               0.542601 eV
  Excitation energy:                                               0.355047 eV
  Excitation energy:                                               3.192079 eV
  Excitation energy:                                               2.672314 eV
  Excitation energy:                                               2.625509 eV
  Excitation energy:                                               1.868732 eV
  Excitation energy:                                               1.681179 eV
  Excitation energy:                                               1.326132 eV
  Excitation energy:                                               3.522699 eV
  Excitation energy:                                               3.002934 eV
  Excitation energy:                                               2.956129 eV
  Excitation energy:                                               2.199352 eV
  Excitation energy:                                               2.011799 eV
  Excitation energy:                                               1.656752 eV
  Excitation energy:                                               0.330620 eV
  Excitation energy:                                               3.772335 eV
  Excitation energy:                                               3.252571 eV
  Excitation energy:                                               3.205766 eV
  Excitation energy:                                               2.448989 eV
  Excitation energy:                                               2.261435 eV
  Excitation energy:                                               1.906388 eV
  Excitation energy:                                               0.580256 eV
  Excitation energy:                                               0.249636 eV
  Excitation energy:                                               4.349054 eV
  Excitation energy:                                               3.829290 eV
  Excitation energy:                                               3.782485 eV
  Excitation energy:                                               3.025708 eV
  Excitation energy:                                               2.838154 eV
  Excitation energy:                                               2.483107 eV
  Excitation energy:                                               1.156976 eV
  Excitation energy:                                               0.826355 eV
  Excitation energy:                                               0.576719 eV

                    Orbital Energies (a.u.)
 --------------------------------------------------------------

 Alpha MOs
 -- Occupied --
-11.2386 -11.2355  -1.0256  -0.7948  -0.6428  -0.5763  -0.5116  -0.3673

          Ground-State Mulliken Net Atomic Charges

     Atom                 Charge (a.u.)
  ----------------------------------------
      1 H                     0.048691
      2 C                    -0.107170
      3 H                     0.050798
      4 C                    -0.083478
      5 H                     0.039912
      6 H                     0.051246
  ----------------------------------------
  Sum of atomic charges =     0.000000

                    Cartesian Multipole Moments
 -----------------------------------------------------------------
    Charge (ESU x 10^10)
                 0.0000
    Dipole Moment (Debye)
         X       0.0119      Y       0.0062      Z       0.0055
       Tot       0.0144
    Quadrupole Moments (Debye-Ang)
        XX     -12.3592     XY      -0.0446     YY     -12.1249
        XZ       0.1445     YZ       0.2083     ZZ     -15.6147

 Total job time:  80.09s(wall), 274.86s(cpu)
        *  Thank you very much for using Q-Chem.  Have a nice day.  *
