 Q-Chem 5.4 (devel), Q-Chem, Inc., Pleasanton, CA (2021)
 Q-Chem 5.4.1 for Intel X86 EM64T Linux

User input:
--------------------------------------------------------------
$comment
generated from CCJob.Templates
$end

$rem
sym_ignore = true
method = adc(2)
ee_states = 10
basis = cc-pVDZ
mem_static = 1024
mem_total = 40000
adc_davidson_maxiter = 900
adc_davidson_conv = 6
adc_print = 3
adc_prop_es = true
adc_prop_es2es = true
adc_prop_tpa = true
molden_format = True
state_analysis = true
print_orbitals = 15
gen_scfman = false
fde_export_density = true
fde_details = 3
$end

$molecule
0 1
H -0.00924237723911472 -0.284259540933474 0.06396202545517596
C -1.0705053877865571 -0.5166197763389255 -0.0018536604678528509
H -1.3390620556566266 -1.582671393581472 -0.07828777842115983
C -2.0373533217866213 0.40164263736097855 0.007119719832093864
H -1.8593686428564986 1.4728475999186237 0.08132852407914923
H -3.088830196739083 0.07912904036652602 -0.061967347844685494
$end
--------------------------------------------------------------

             Standard Nuclear Orientation (Angstroms)
    I     Atom           X                Y                Z
 ----------------------------------------------------------------
    1      H      -0.0092423772    -0.2842595409     0.0639620255
    2      C      -1.0705053878    -0.5166197763    -0.0018536605
    3      H      -1.3390620557    -1.5826713936    -0.0782877784
    4      C      -2.0373533218     0.4016426374     0.0071197198
    5      H      -1.8593686429     1.4728475999     0.0813285241
    6      H      -3.0888301967     0.0791290404    -0.0619673478
 ----------------------------------------------------------------

   10     -78.0390950795      5.51E-09 Convergence criterion met
 Total energy in the final basis set = -78.03909508
  Excited state 1 (singlet, A)                                     [converged]
  Term symbol:  2 (1) A                                     R^2 =  2.92358e-11
  Excitation energy:                                               8.732107 eV
  Excited state 2 (singlet, A)                                     [converged]
  Term symbol:  3 (1) A                                     R^2 =  7.43345e-11
  Excitation energy:                                               8.930067 eV
  Excited state 3 (singlet, A)                                     [converged]
  Term symbol:  4 (1) A                                     R^2 =  6.74444e-12
  Excitation energy:                                               9.122578 eV
  Excited state 4 (singlet, A)                                     [converged]
  Term symbol:  5 (1) A                                     R^2 =  2.13433e-11
  Excitation energy:                                               9.752206 eV
  Excited state 5 (singlet, A)                                     [converged]
  Term symbol:  6 (1) A                                     R^2 =  1.48851e-11
  Excitation energy:                                              10.155103 eV
  Excited state 6 (singlet, A)                                     [converged]
  Term symbol:  7 (1) A                                     R^2 =  1.30014e-10
  Excitation energy:                                              10.516579 eV
  Excited state 7 (singlet, A)                                     [converged]
  Term symbol:  8 (1) A                                     R^2 =  8.11792e-08
  Excitation energy:                                              11.398202 eV
  Excited state 8 (singlet, A)                                     [converged]
  Term symbol:  9 (1) A                                     R^2 =  1.21320e-07
  Excitation energy:                                              12.070812 eV
  Excited state 9 (singlet, A)                                     [converged]
  Term symbol:  10 (1) A                                    R^2 =  3.53745e-07
  Excitation energy:                                              12.348610 eV
  Excited state 10 (singlet, A)                                     [converged]
  Term symbol:  11 (1) A                                    R^2 =  6.79411e-07
  Excitation energy:                                              12.467148 eV
  Excitation energy:                                               0.197960 eV
  Excitation energy:                                               0.390470 eV
  Excitation energy:                                               0.192510 eV
  Excitation energy:                                               1.020099 eV
  Excitation energy:                                               0.822139 eV
  Excitation energy:                                               0.629629 eV
  Excitation energy:                                               1.422995 eV
  Excitation energy:                                               1.225036 eV
  Excitation energy:                                               1.032525 eV
  Excitation energy:                                               0.402896 eV
  Excitation energy:                                               1.784472 eV
  Excitation energy:                                               1.586512 eV
  Excitation energy:                                               1.394001 eV
  Excitation energy:                                               0.764372 eV
  Excitation energy:                                               0.361476 eV
  Excitation energy:                                               2.666095 eV
  Excitation energy:                                               2.468135 eV
  Excitation energy:                                               2.275624 eV
  Excitation energy:                                               1.645996 eV
  Excitation energy:                                               1.243099 eV
  Excitation energy:                                               0.881623 eV
  Excitation energy:                                               3.338704 eV
  Excitation energy:                                               3.140744 eV
  Excitation energy:                                               2.948234 eV
  Excitation energy:                                               2.318605 eV
  Excitation energy:                                               1.915709 eV
  Excitation energy:                                               1.554233 eV
  Excitation energy:                                               0.672609 eV
  Excitation energy:                                               3.616503 eV
  Excitation energy:                                               3.418543 eV
  Excitation energy:                                               3.226033 eV
  Excitation energy:                                               2.596404 eV
  Excitation energy:                                               2.193508 eV
  Excitation energy:                                               1.832031 eV
  Excitation energy:                                               0.950408 eV
  Excitation energy:                                               0.277799 eV
  Excitation energy:                                               3.735040 eV
  Excitation energy:                                               3.537080 eV
  Excitation energy:                                               3.344570 eV
  Excitation energy:                                               2.714941 eV
  Excitation energy:                                               2.312045 eV
  Excitation energy:                                               1.950569 eV
  Excitation energy:                                               1.068945 eV
  Excitation energy:                                               0.396336 eV
  Excitation energy:                                               0.118537 eV

                    Orbital Energies (a.u.)
 --------------------------------------------------------------

 Alpha MOs
 -- Occupied --
-11.2391 -11.2375  -1.0299  -0.7856  -0.6352  -0.5820  -0.4988  -0.3745

          Ground-State Mulliken Net Atomic Charges

     Atom                 Charge (a.u.)
  ----------------------------------------
      1 H                     0.052557
      2 C                    -0.105058
      3 H                     0.052503
      4 C                    -0.105066
      5 H                     0.052569
      6 H                     0.052495
  ----------------------------------------
  Sum of atomic charges =     0.000000

                    Cartesian Multipole Moments
 -----------------------------------------------------------------
    Charge (ESU x 10^10)
                -0.0000
    Dipole Moment (Debye)
         X       0.0031      Y       0.0032      Z       0.0028
       Tot       0.0053
    Quadrupole Moments (Debye-Ang)
        XX     -12.2578     XY      -0.1150     YY     -12.2630
        XZ       0.1515     YZ       0.1982     ZZ     -15.6140

 Total job time:  125.70s(wall), 378.90s(cpu)
        *  Thank you very much for using Q-Chem.  Have a nice day.  *
