 Q-Chem 5.4 (devel), Q-Chem, Inc., Pleasanton, CA (2021)
 Q-Chem 5.4.1 for Intel X86 EM64T Linux

User input:
--------------------------------------------------------------
$comment
generated from CCJob.Templates
$end

$rem
sym_ignore = true
method = adc(2)
ee_states = 10
basis = cc-pVDZ
mem_static = 1024
mem_total = 30000
adc_davidson_maxiter = 900
adc_davidson_conv = 6
adc_print = 3
adc_prop_es = true
adc_prop_es2es = true
adc_prop_tpa = true
molden_format = True
state_analysis = true
print_orbitals = 15
gen_scfman = false
fde_export_density = true
fde_details = 3
$end

$molecule
0 1
H -0.0348278765 -0.2442097827 0.0636489606
C -1.0765972949 -0.5242748755 -0.0073551776
H -1.313264467 -1.5767591607 -0.0757276926
C -2.043634118 0.3926884087 0.0061254933
H -1.8137616575 1.4459188338 0.0804456828
H -3.085977293 0.114931858 -0.0593381042
$end
--------------------------------------------------------------

             Standard Nuclear Orientation (Angstroms)
    I     Atom           X                Y                Z
 ----------------------------------------------------------------
    1      H      -0.0348278765    -0.2442097827     0.0636489606
    2      C      -1.0765972949    -0.5242748755    -0.0073551776
    3      H      -1.3132644670    -1.5767591607    -0.0757276926
    4      C      -2.0436341180     0.3926884087     0.0061254933
    5      H      -1.8137616575     1.4459188338     0.0804456828
    6      H      -3.0859772930     0.1149318580    -0.0593381042
 ----------------------------------------------------------------

   11     -78.0399211037      2.71E-09 Convergence criterion met
 Total energy in the final basis set = -78.03992110
  Excited state 1 (singlet, A)                                     [converged]
  Term symbol:  2 (1) A                                     R^2 =  7.01896e-14
  Excitation energy:                                               8.736646 eV
  Excited state 2 (singlet, A)                                     [converged]
  Term symbol:  3 (1) A                                     R^2 =  1.21511e-13
  Excitation energy:                                               9.054302 eV
  Excited state 3 (singlet, A)                                     [converged]
  Term symbol:  4 (1) A                                     R^2 =  1.93229e-13
  Excitation energy:                                               9.170632 eV
  Excited state 4 (singlet, A)                                     [converged]
  Term symbol:  5 (1) A                                     R^2 =  1.62955e-13
  Excitation energy:                                               9.833315 eV
  Excited state 5 (singlet, A)                                     [converged]
  Term symbol:  6 (1) A                                     R^2 =  3.25620e-13
  Excitation energy:                                              10.211741 eV
  Excited state 6 (singlet, A)                                     [converged]
  Term symbol:  7 (1) A                                     R^2 =  6.03939e-13
  Excitation energy:                                              10.535381 eV
  Excited state 7 (singlet, A)                                     [converged]
  Term symbol:  8 (1) A                                     R^2 =  9.33716e-11
  Excitation energy:                                              11.557053 eV
  Excited state 8 (singlet, A)                                     [converged]
  Term symbol:  9 (1) A                                     R^2 =  1.51524e-09
  Excitation energy:                                              12.165079 eV
  Excited state 9 (singlet, A)                                     [converged]
  Term symbol:  10 (1) A                                    R^2 =  1.63449e-08
  Excitation energy:                                              12.416834 eV
  Excited state 10 (singlet, A)                                     [converged]
  Term symbol:  11 (1) A                                    R^2 =  8.60526e-07
  Excitation energy:                                              12.645997 eV
  Excitation energy:                                               0.317656 eV
  Excitation energy:                                               0.433986 eV
  Excitation energy:                                               0.116330 eV
  Excitation energy:                                               1.096669 eV
  Excitation energy:                                               0.779013 eV
  Excitation energy:                                               0.662683 eV
  Excitation energy:                                               1.475095 eV
  Excitation energy:                                               1.157439 eV
  Excitation energy:                                               1.041109 eV
  Excitation energy:                                               0.378426 eV
  Excitation energy:                                               1.798736 eV
  Excitation energy:                                               1.481079 eV
  Excitation energy:                                               1.364749 eV
  Excitation energy:                                               0.702066 eV
  Excitation energy:                                               0.323641 eV
  Excitation energy:                                               2.820408 eV
  Excitation energy:                                               2.502751 eV
  Excitation energy:                                               2.386422 eV
  Excitation energy:                                               1.723738 eV
  Excitation energy:                                               1.345313 eV
  Excitation energy:                                               1.021672 eV
  Excitation energy:                                               3.428433 eV
  Excitation energy:                                               3.110777 eV
  Excitation energy:                                               2.994447 eV
  Excitation energy:                                               2.331764 eV
  Excitation energy:                                               1.953338 eV
  Excitation energy:                                               1.629698 eV
  Excitation energy:                                               0.608026 eV
  Excitation energy:                                               3.680188 eV
  Excitation energy:                                               3.362532 eV
  Excitation energy:                                               3.246202 eV
  Excitation energy:                                               2.583519 eV
  Excitation energy:                                               2.205093 eV
  Excitation energy:                                               1.881453 eV
  Excitation energy:                                               0.859781 eV
  Excitation energy:                                               0.251755 eV
  Excitation energy:                                               3.909352 eV
  Excitation energy:                                               3.591695 eV
  Excitation energy:                                               3.475366 eV
  Excitation energy:                                               2.812683 eV
  Excitation energy:                                               2.434257 eV
  Excitation energy:                                               2.110616 eV
  Excitation energy:                                               1.088944 eV
  Excitation energy:                                               0.480919 eV
  Excitation energy:                                               0.229163 eV

                    Orbital Energies (a.u.)
 --------------------------------------------------------------

 Alpha MOs
 -- Occupied --
-11.2351 -11.2334  -1.0323  -0.7898  -0.6411  -0.5819  -0.5046  -0.3740

          Ground-State Mulliken Net Atomic Charges

     Atom                 Charge (a.u.)
  ----------------------------------------
      1 H                     0.048180
      2 C                    -0.095143
      3 H                     0.047611
      4 C                    -0.095513
      5 H                     0.047214
      6 H                     0.047650
  ----------------------------------------
  Sum of atomic charges =     0.000000

                    Cartesian Multipole Moments
 -----------------------------------------------------------------
    Charge (ESU x 10^10)
                -0.0000
    Dipole Moment (Debye)
         X      -0.0024      Y       0.0012      Z       0.0081
       Tot       0.0085
    Quadrupole Moments (Debye-Ang)
        XX     -12.2136     XY      -0.0579     YY     -12.2661
        XZ       0.1448     YZ       0.1901     ZZ     -15.5412

 Total job time:  64.39s(wall), 208.37s(cpu)
        *  Thank you very much for using Q-Chem.  Have a nice day.  *
