 Q-Chem 5.4 (devel), Q-Chem, Inc., Pleasanton, CA (2021)
 Q-Chem 5.4.1 for Intel X86 EM64T Linux

User input:
--------------------------------------------------------------
$comment
generated from CCJob.Templates
$end

$rem
sym_ignore = true
method = adc(2)
ee_states = 10
basis = cc-pVDZ
mem_static = 1024
mem_total = 40000
adc_davidson_maxiter = 900
adc_davidson_conv = 6
adc_print = 3
adc_prop_es = true
adc_prop_es2es = true
adc_prop_tpa = true
molden_format = True
state_analysis = true
print_orbitals = 15
gen_scfman = false
fde_export_density = true
fde_details = 3
$end

$molecule
0 1
H -0.03712926049123801 -0.2193744172357494 0.06614970562105349
C -1.1016321142458796 -0.5493794631350613 -0.005123741266580753
H -1.2729078918184826 -1.6071848366394277 -0.0770841783079706
C -2.02103859335402 0.41880352623506123 0.009370120766404972
H -1.8498026567816177 1.476619685739076 0.08131100380799569
H -3.085552910208988 0.08881070673607583 -0.06182238832047592
$end
--------------------------------------------------------------

             Standard Nuclear Orientation (Angstroms)
    I     Atom           X                Y                Z
 ----------------------------------------------------------------
    1      H      -0.0371292605    -0.2193744172     0.0661497056
    2      C      -1.1016321142    -0.5493794631    -0.0051237413
    3      H      -1.2729078918    -1.6071848366    -0.0770841783
    4      C      -2.0210385934     0.4188035262     0.0093701208
    5      H      -1.8498026568     1.4766196857     0.0813110038
    6      H      -3.0855529102     0.0888107067    -0.0618223883
 ----------------------------------------------------------------

   10     -78.0356980891      3.76E-09 Convergence criterion met
 Total energy in the final basis set = -78.03569809
  Excited state 1 (singlet, A)                                     [converged]
  Term symbol:  2 (1) A                                     R^2 =  3.73026e-13
  Excitation energy:                                               8.717135 eV
  Excited state 2 (singlet, A)                                     [converged]
  Term symbol:  3 (1) A                                     R^2 =  7.17357e-13
  Excitation energy:                                               8.743442 eV
  Excited state 3 (singlet, A)                                     [converged]
  Term symbol:  4 (1) A                                     R^2 =  5.55949e-13
  Excitation energy:                                               9.127083 eV
  Excited state 4 (singlet, A)                                     [converged]
  Term symbol:  5 (1) A                                     R^2 =  5.06762e-13
  Excitation energy:                                               9.711239 eV
  Excited state 5 (singlet, A)                                     [converged]
  Term symbol:  6 (1) A                                     R^2 =  4.07725e-13
  Excitation energy:                                              10.196457 eV
  Excited state 6 (singlet, A)                                     [converged]
  Term symbol:  7 (1) A                                     R^2 =  4.06656e-13
  Excitation energy:                                              10.640771 eV
  Excited state 7 (singlet, A)                                     [converged]
  Term symbol:  8 (1) A                                     R^2 =  9.22026e-11
  Excitation energy:                                              11.280256 eV
  Excited state 8 (singlet, A)                                     [converged]
  Term symbol:  9 (1) A                                     R^2 =  2.19323e-11
  Excitation energy:                                              12.017237 eV
  Excited state 9 (singlet, A)                                     [converged]
  Term symbol:  10 (1) A                                    R^2 =  1.82477e-09
  Excitation energy:                                              12.288171 eV
  Excited state 10 (singlet, A)                                     [converged]
  Term symbol:  11 (1) A                                    R^2 =  8.37506e-07
  Excitation energy:                                              12.306825 eV
  Excitation energy:                                               0.026307 eV
  Excitation energy:                                               0.409948 eV
  Excitation energy:                                               0.383641 eV
  Excitation energy:                                               0.994104 eV
  Excitation energy:                                               0.967797 eV
  Excitation energy:                                               0.584156 eV
  Excitation energy:                                               1.479322 eV
  Excitation energy:                                               1.453015 eV
  Excitation energy:                                               1.069374 eV
  Excitation energy:                                               0.485218 eV
  Excitation energy:                                               1.923636 eV
  Excitation energy:                                               1.897329 eV
  Excitation energy:                                               1.513688 eV
  Excitation energy:                                               0.929532 eV
  Excitation energy:                                               0.444314 eV
  Excitation energy:                                               2.563121 eV
  Excitation energy:                                               2.536814 eV
  Excitation energy:                                               2.153173 eV
  Excitation energy:                                               1.569017 eV
  Excitation energy:                                               1.083799 eV
  Excitation energy:                                               0.639485 eV
  Excitation energy:                                               3.300102 eV
  Excitation energy:                                               3.273795 eV
  Excitation energy:                                               2.890154 eV
  Excitation energy:                                               2.305998 eV
  Excitation energy:                                               1.820780 eV
  Excitation energy:                                               1.376466 eV
  Excitation energy:                                               0.736981 eV
  Excitation energy:                                               3.571036 eV
  Excitation energy:                                               3.544729 eV
  Excitation energy:                                               3.161088 eV
  Excitation energy:                                               2.576932 eV
  Excitation energy:                                               2.091714 eV
  Excitation energy:                                               1.647400 eV
  Excitation energy:                                               1.007915 eV
  Excitation energy:                                               0.270934 eV
  Excitation energy:                                               3.589691 eV
  Excitation energy:                                               3.563383 eV
  Excitation energy:                                               3.179742 eV
  Excitation energy:                                               2.595586 eV
  Excitation energy:                                               2.110368 eV
  Excitation energy:                                               1.666054 eV
  Excitation energy:                                               1.026570 eV
  Excitation energy:                                               0.289588 eV
  Excitation energy:                                               0.018654 eV

                    Orbital Energies (a.u.)
 --------------------------------------------------------------

 Alpha MOs
 -- Occupied --
-11.2399 -11.2382  -1.0297  -0.7871  -0.6336  -0.5885  -0.4922  -0.3744

          Ground-State Mulliken Net Atomic Charges

     Atom                 Charge (a.u.)
  ----------------------------------------
      1 H                     0.050303
      2 C                    -0.103840
      3 H                     0.053543
      4 C                    -0.103849
      5 H                     0.053543
      6 H                     0.050300
  ----------------------------------------
  Sum of atomic charges =     0.000000

                    Cartesian Multipole Moments
 -----------------------------------------------------------------
    Charge (ESU x 10^10)
                 0.0000
    Dipole Moment (Debye)
         X      -0.0000      Y       0.0000      Z       0.0000
       Tot       0.0000
    Quadrupole Moments (Debye-Ang)
        XX     -12.7047     XY      -0.1275     YY     -11.8352
        XZ       0.1337     YZ       0.2235     ZZ     -15.6220

 Total job time:  146.26s(wall), 448.57s(cpu)
        *  Thank you very much for using Q-Chem.  Have a nice day.  *
