 Q-Chem 5.4 (devel), Q-Chem, Inc., Pleasanton, CA (2021)
 Q-Chem 5.4.1 for Intel X86 EM64T Linux

User input:
--------------------------------------------------------------
$comment
generated from CCJob.Templates
$end

$rem
sym_ignore = true
method = adc(2)
ee_states = 10
basis = cc-pVDZ
mem_static = 1024
mem_total = 40000
adc_davidson_maxiter = 900
adc_davidson_conv = 6
adc_print = 3
adc_prop_es = true
adc_prop_es2es = true
adc_prop_tpa = true
molden_format = True
state_analysis = true
print_orbitals = 15
gen_scfman = false
fde_export_density = true
fde_details = 3
$end

$molecule
0 1
H 0.015140342484172047 -0.23774146638226673 0.06744298517905314
C -1.0904226661466505 -0.5375466546144577 -0.0037535803273842675
H -1.293863341083244 -1.5560516341316486 -0.07511065863500462
C -2.032233721454114 0.4069866377136263 0.008001319827342491
H -1.8288546475163505 1.425443363233959 0.0793349241351341
H -3.1378645131819414 0.10716615588281816 -0.06311782787903644
$end
--------------------------------------------------------------

             Standard Nuclear Orientation (Angstroms)
    I     Atom           X                Y                Z
 ----------------------------------------------------------------
    1      H       0.0151403425    -0.2377414664     0.0674429852
    2      C      -1.0904226661    -0.5375466546    -0.0037535803
    3      H      -1.2938633411    -1.5560516341    -0.0751106586
    4      C      -2.0322337215     0.4069866377     0.0080013198
    5      H      -1.8288546475     1.4254433632     0.0793349241
    6      H      -3.1378645132     0.1071661559    -0.0631178279
 ----------------------------------------------------------------

   11     -78.0320521037      1.69E-09 Convergence criterion met
 Total energy in the final basis set = -78.03205210
  Excited state 1 (singlet, A)                                     [converged]
  Term symbol:  2 (1) A                                     R^2 =  1.52973e-13
  Excitation energy:                                               8.728282 eV
  Excited state 2 (singlet, A)                                     [converged]
  Term symbol:  3 (1) A                                     R^2 =  2.57353e-13
  Excitation energy:                                               8.850882 eV
  Excited state 3 (singlet, A)                                     [converged]
  Term symbol:  4 (1) A                                     R^2 =  2.56564e-13
  Excitation energy:                                               9.129423 eV
  Excited state 4 (singlet, A)                                     [converged]
  Term symbol:  5 (1) A                                     R^2 =  9.42412e-14
  Excitation energy:                                               9.599029 eV
  Excited state 5 (singlet, A)                                     [converged]
  Term symbol:  6 (1) A                                     R^2 =  3.46410e-13
  Excitation energy:                                              10.277809 eV
  Excited state 6 (singlet, A)                                     [converged]
  Term symbol:  7 (1) A                                     R^2 =  2.19021e-12
  Excitation energy:                                              10.612597 eV
  Excited state 7 (singlet, A)                                     [converged]
  Term symbol:  8 (1) A                                     R^2 =  1.25446e-08
  Excitation energy:                                              11.374247 eV
  Excited state 8 (singlet, A)                                     [converged]
  Term symbol:  9 (1) A                                     R^2 =  4.16323e-09
  Excitation energy:                                              12.023603 eV
  Excited state 9 (singlet, A)                                     [converged]
  Term symbol:  10 (1) A                                    R^2 =  9.71996e-07
  Excitation energy:                                              12.226622 eV
  Excited state 10 (singlet, A)                                     [converged]
  Term symbol:  11 (1) A                                    R^2 =  2.23148e-08
  Excitation energy:                                              12.318321 eV
  Excitation energy:                                               0.122599 eV
  Excitation energy:                                               0.401140 eV
  Excitation energy:                                               0.278541 eV
  Excitation energy:                                               0.870747 eV
  Excitation energy:                                               0.748147 eV
  Excitation energy:                                               0.469606 eV
  Excitation energy:                                               1.549527 eV
  Excitation energy:                                               1.426928 eV
  Excitation energy:                                               1.148386 eV
  Excitation energy:                                               0.678780 eV
  Excitation energy:                                               1.884315 eV
  Excitation energy:                                               1.761716 eV
  Excitation energy:                                               1.483175 eV
  Excitation energy:                                               1.013568 eV
  Excitation energy:                                               0.334788 eV
  Excitation energy:                                               2.645965 eV
  Excitation energy:                                               2.523365 eV
  Excitation energy:                                               2.244824 eV
  Excitation energy:                                               1.775218 eV
  Excitation energy:                                               1.096438 eV
  Excitation energy:                                               0.761650 eV
  Excitation energy:                                               3.295320 eV
  Excitation energy:                                               3.172721 eV
  Excitation energy:                                               2.894180 eV
  Excitation energy:                                               2.424574 eV
  Excitation energy:                                               1.745793 eV
  Excitation energy:                                               1.411005 eV
  Excitation energy:                                               0.649356 eV
  Excitation energy:                                               3.498340 eV
  Excitation energy:                                               3.375740 eV
  Excitation energy:                                               3.097199 eV
  Excitation energy:                                               2.627593 eV
  Excitation energy:                                               1.948813 eV
  Excitation energy:                                               1.614025 eV
  Excitation energy:                                               0.852375 eV
  Excitation energy:                                               0.203019 eV
  Excitation energy:                                               3.590038 eV
  Excitation energy:                                               3.467439 eV
  Excitation energy:                                               3.188898 eV
  Excitation energy:                                               2.719292 eV
  Excitation energy:                                               2.040511 eV
  Excitation energy:                                               1.705723 eV
  Excitation energy:                                               0.944074 eV
  Excitation energy:                                               0.294718 eV
  Excitation energy:                                               0.091699 eV

                    Orbital Energies (a.u.)
 --------------------------------------------------------------

 Alpha MOs
 -- Occupied --
-11.2394 -11.2377  -1.0307  -0.7905  -0.6321  -0.5884  -0.4948  -0.3748

          Ground-State Mulliken Net Atomic Charges

     Atom                 Charge (a.u.)
  ----------------------------------------
      1 H                     0.058845
      2 C                    -0.098636
      3 H                     0.039799
      4 C                    -0.098633
      5 H                     0.039777
      6 H                     0.058847
  ----------------------------------------
  Sum of atomic charges =     0.000000

                    Cartesian Multipole Moments
 -----------------------------------------------------------------
    Charge (ESU x 10^10)
                 0.0000
    Dipole Moment (Debye)
         X       0.0000      Y       0.0000      Z       0.0000
       Tot       0.0001
    Quadrupole Moments (Debye-Ang)
        XX     -12.4332     XY      -0.1053     YY     -12.1070
        XZ       0.1470     YZ       0.2078     ZZ     -15.6100

 Total job time:  138.55s(wall), 417.51s(cpu)
        *  Thank you very much for using Q-Chem.  Have a nice day.  *
