 Q-Chem 5.4 (devel), Q-Chem, Inc., Pleasanton, CA (2021)
 Q-Chem 5.4.1 for Intel X86 EM64T Linux

User input:
--------------------------------------------------------------
$comment
generated from CCJob.Templates
$end

$rem
sym_ignore = true
method = adc(2)
ee_states = 10
basis = cc-pVDZ
mem_static = 1024
mem_total = 40000
adc_davidson_maxiter = 900
adc_davidson_conv = 6
adc_print = 3
adc_prop_es = true
adc_prop_es2es = true
adc_prop_tpa = true
molden_format = True
state_analysis = true
print_orbitals = 15
gen_scfman = false
fde_export_density = true
fde_details = 3
$end

$molecule
0 1
H -0.02325837559381229 -0.24546258590547415 0.08426874523079267
C -1.0835199467797219 -0.5205736953139021 0.06471177935749108
H -1.3031563006929352 -1.5929085922004818 -0.04336665862411751
C -2.0487061207857318 0.4000092783777054 0.015237799868806044
H -1.8223228878970534 1.4652456812899928 0.06953196404479864
H -3.102192435096175 0.11780031539498023 -0.058004548010112116
$end
--------------------------------------------------------------

             Standard Nuclear Orientation (Angstroms)
    I     Atom           X                Y                Z
 ----------------------------------------------------------------
    1      H      -0.0232583756    -0.2454625859     0.0842687452
    2      C      -1.0835199468    -0.5205736953     0.0647117794
    3      H      -1.3031563007    -1.5929085922    -0.0433666586
    4      C      -2.0487061208     0.4000092784     0.0152377999
    5      H      -1.8223228879     1.4652456813     0.0695319640
    6      H      -3.1021924351     0.1178003154    -0.0580045480
 ----------------------------------------------------------------

   11     -78.0390712774      7.90E-09 Convergence criterion met
 Total energy in the final basis set = -78.03907128
  Excited state 1 (singlet, A)                                     [converged]
  Term symbol:  2 (1) A                                     R^2 =  2.71226e-13
  Excitation energy:                                               8.709349 eV
  Excited state 2 (singlet, A)                                     [converged]
  Term symbol:  3 (1) A                                     R^2 =  3.81661e-13
  Excitation energy:                                               8.930192 eV
  Excited state 3 (singlet, A)                                     [converged]
  Term symbol:  4 (1) A                                     R^2 =  3.75200e-13
  Excitation energy:                                               9.139686 eV
  Excited state 4 (singlet, A)                                     [converged]
  Term symbol:  5 (1) A                                     R^2 =  4.51024e-13
  Excitation energy:                                               9.735188 eV
  Excited state 5 (singlet, A)                                     [converged]
  Term symbol:  6 (1) A                                     R^2 =  2.46726e-13
  Excitation energy:                                              10.147192 eV
  Excited state 6 (singlet, A)                                     [converged]
  Term symbol:  7 (1) A                                     R^2 =  6.03366e-13
  Excitation energy:                                              10.500796 eV
  Excited state 7 (singlet, A)                                     [converged]
  Term symbol:  8 (1) A                                     R^2 =  1.08612e-09
  Excitation energy:                                              11.427533 eV
  Excited state 8 (singlet, A)                                     [converged]
  Term symbol:  9 (1) A                                     R^2 =  5.55704e-08
  Excitation energy:                                              12.047071 eV
  Excited state 9 (singlet, A)                                     [converged]
  Term symbol:  10 (1) A                                    R^2 =  7.67992e-07
  Excitation energy:                                              12.334026 eV
  Excited state 10 (singlet, A)                                     [converged]
  Term symbol:  11 (1) A                                    R^2 =  1.46751e-07
  Excitation energy:                                              12.472740 eV
  Excitation energy:                                               0.220843 eV
  Excitation energy:                                               0.430337 eV
  Excitation energy:                                               0.209494 eV
  Excitation energy:                                               1.025839 eV
  Excitation energy:                                               0.804996 eV
  Excitation energy:                                               0.595502 eV
  Excitation energy:                                               1.437843 eV
  Excitation energy:                                               1.217000 eV
  Excitation energy:                                               1.007506 eV
  Excitation energy:                                               0.412004 eV
  Excitation energy:                                               1.791447 eV
  Excitation energy:                                               1.570604 eV
  Excitation energy:                                               1.361110 eV
  Excitation energy:                                               0.765608 eV
  Excitation energy:                                               0.353604 eV
  Excitation energy:                                               2.718184 eV
  Excitation energy:                                               2.497342 eV
  Excitation energy:                                               2.287847 eV
  Excitation energy:                                               1.692346 eV
  Excitation energy:                                               1.280341 eV
  Excitation energy:                                               0.926737 eV
  Excitation energy:                                               3.337722 eV
  Excitation energy:                                               3.116879 eV
  Excitation energy:                                               2.907385 eV
  Excitation energy:                                               2.311883 eV
  Excitation energy:                                               1.899879 eV
  Excitation energy:                                               1.546275 eV
  Excitation energy:                                               0.619537 eV
  Excitation energy:                                               3.624676 eV
  Excitation energy:                                               3.403834 eV
  Excitation energy:                                               3.194339 eV
  Excitation energy:                                               2.598838 eV
  Excitation energy:                                               2.186834 eV
  Excitation energy:                                               1.833230 eV
  Excitation energy:                                               0.906492 eV
  Excitation energy:                                               0.286955 eV
  Excitation energy:                                               3.763391 eV
  Excitation energy:                                               3.542548 eV
  Excitation energy:                                               3.333054 eV
  Excitation energy:                                               2.737552 eV
  Excitation energy:                                               2.325548 eV
  Excitation energy:                                               1.971944 eV
  Excitation energy:                                               1.045207 eV
  Excitation energy:                                               0.425669 eV
  Excitation energy:                                               0.138715 eV

                    Orbital Energies (a.u.)
 --------------------------------------------------------------

 Alpha MOs
 -- Occupied --
-11.2392 -11.2374  -1.0296  -0.7858  -0.6348  -0.5819  -0.4994  -0.3742

          Ground-State Mulliken Net Atomic Charges

     Atom                 Charge (a.u.)
  ----------------------------------------
      1 H                     0.052814
      2 C                    -0.110631
      3 H                     0.053545
      4 C                    -0.100162
      5 H                     0.051907
      6 H                     0.052527
  ----------------------------------------
  Sum of atomic charges =     0.000000

                    Cartesian Multipole Moments
 -----------------------------------------------------------------
    Charge (ESU x 10^10)
                -0.0000
    Dipole Moment (Debye)
         X      -0.0001      Y       0.0108      Z      -0.0747
       Tot       0.0754
    Quadrupole Moments (Debye-Ang)
        XX     -12.2470     XY      -0.1194     YY     -12.2681
        XZ       0.2603     YZ       0.1788     ZZ     -15.6218

 Total job time:  142.88s(wall), 426.79s(cpu)
        *  Thank you very much for using Q-Chem.  Have a nice day.  *
