 Q-Chem 5.4 (devel), Q-Chem, Inc., Pleasanton, CA (2021)
 Q-Chem 5.4.1 for Intel X86 EM64T Linux

User input:
--------------------------------------------------------------
$comment
generated from CCJob.Templates
$end

$rem
sym_ignore = true
method = adc(2)
ee_states = 10
basis = cc-pVDZ
mem_static = 1024
mem_total = 40000
adc_davidson_maxiter = 900
adc_davidson_conv = 6
adc_print = 3
adc_prop_es = true
adc_prop_es2es = true
adc_prop_tpa = true
molden_format = True
state_analysis = true
print_orbitals = 15
gen_scfman = false
fde_export_density = true
fde_details = 3
$end

$molecule
0 1
H -0.005964610708761987 -0.2745789145642506 0.0641041049789465
C -1.0541904993541202 -0.49945816746493876 0.0003977004665807536
H -1.3294967095815173 -1.5788989077605722 -0.07830769869202941
C -2.06848084824598 0.36888223056493874 0.0038497990335950288
H -1.7932131990183822 1.4483359968609237 0.0825343641920043
H -3.116716119991012 0.14401312406392416 -0.05978046767952407
$end
--------------------------------------------------------------

             Standard Nuclear Orientation (Angstroms)
    I     Atom           X                Y                Z
 ----------------------------------------------------------------
    1      H      -0.0059646107    -0.2745789146     0.0641041050
    2      C      -1.0541904994    -0.4994581675     0.0003977005
    3      H      -1.3294967096    -1.5788989078    -0.0783076987
    4      C      -2.0684808482     0.3688822306     0.0038497990
    5      H      -1.7932131990     1.4483359969     0.0825343642
    6      H      -3.1167161200     0.1440131241    -0.0597804677
 ----------------------------------------------------------------

   10     -78.0357015979      4.02E-09 Convergence criterion met
 Total energy in the final basis set = -78.03570160
  Excited state 1 (singlet, A)                                     [converged]
  Term symbol:  2 (1) A                                     R^2 =  3.22780e-14
  Excitation energy:                                               8.717385 eV
  Excited state 2 (singlet, A)                                     [converged]
  Term symbol:  3 (1) A                                     R^2 =  7.04544e-14
  Excitation energy:                                               8.743513 eV
  Excited state 3 (singlet, A)                                     [converged]
  Term symbol:  4 (1) A                                     R^2 =  7.15038e-14
  Excitation energy:                                               9.127492 eV
  Excited state 4 (singlet, A)                                     [converged]
  Term symbol:  5 (1) A                                     R^2 =  5.68288e-14
  Excitation energy:                                               9.711356 eV
  Excited state 5 (singlet, A)                                     [converged]
  Term symbol:  6 (1) A                                     R^2 =  3.49621e-13
  Excitation energy:                                              10.196538 eV
  Excited state 6 (singlet, A)                                     [converged]
  Term symbol:  7 (1) A                                     R^2 =  1.49567e-13
  Excitation energy:                                              10.641274 eV
  Excited state 7 (singlet, A)                                     [converged]
  Term symbol:  8 (1) A                                     R^2 =  3.17453e-13
  Excitation energy:                                              11.280372 eV
  Excited state 8 (singlet, A)                                     [converged]
  Term symbol:  9 (1) A                                     R^2 =  9.33711e-12
  Excitation energy:                                              12.017200 eV
  Excited state 9 (singlet, A)                                     [converged]
  Term symbol:  10 (1) A                                    R^2 =  2.50991e-09
  Excitation energy:                                              12.288306 eV
  Excited state 10 (singlet, A)                                     [converged]
  Term symbol:  11 (1) A                                    R^2 =  7.67755e-07
  Excitation energy:                                              12.306764 eV
  Excitation energy:                                               0.026128 eV
  Excitation energy:                                               0.410107 eV
  Excitation energy:                                               0.383979 eV
  Excitation energy:                                               0.993971 eV
  Excitation energy:                                               0.967843 eV
  Excitation energy:                                               0.583864 eV
  Excitation energy:                                               1.479152 eV
  Excitation energy:                                               1.453024 eV
  Excitation energy:                                               1.069046 eV
  Excitation energy:                                               0.485182 eV
  Excitation energy:                                               1.923889 eV
  Excitation energy:                                               1.897761 eV
  Excitation energy:                                               1.513782 eV
  Excitation energy:                                               0.929918 eV
  Excitation energy:                                               0.444736 eV
  Excitation energy:                                               2.562987 eV
  Excitation energy:                                               2.536859 eV
  Excitation energy:                                               2.152880 eV
  Excitation energy:                                               1.569016 eV
  Excitation energy:                                               1.083834 eV
  Excitation energy:                                               0.639098 eV
  Excitation energy:                                               3.299815 eV
  Excitation energy:                                               3.273686 eV
  Excitation energy:                                               2.889708 eV
  Excitation energy:                                               2.305844 eV
  Excitation energy:                                               1.820662 eV
  Excitation energy:                                               1.375926 eV
  Excitation energy:                                               0.736828 eV
  Excitation energy:                                               3.570921 eV
  Excitation energy:                                               3.544793 eV
  Excitation energy:                                               3.160814 eV
  Excitation energy:                                               2.576950 eV
  Excitation energy:                                               2.091769 eV
  Excitation energy:                                               1.647032 eV
  Excitation energy:                                               1.007934 eV
  Excitation energy:                                               0.271107 eV
  Excitation energy:                                               3.589379 eV
  Excitation energy:                                               3.563250 eV
  Excitation energy:                                               3.179272 eV
  Excitation energy:                                               2.595408 eV
  Excitation energy:                                               2.110226 eV
  Excitation energy:                                               1.665490 eV
  Excitation energy:                                               1.026392 eV
  Excitation energy:                                               0.289564 eV
  Excitation energy:                                               0.018457 eV

                    Orbital Energies (a.u.)
 --------------------------------------------------------------

 Alpha MOs
 -- Occupied --
-11.2399 -11.2382  -1.0298  -0.7871  -0.6336  -0.5886  -0.4922  -0.3744

          Ground-State Mulliken Net Atomic Charges

     Atom                 Charge (a.u.)
  ----------------------------------------
      1 H                     0.053528
      2 C                    -0.103826
      3 H                     0.050303
      4 C                    -0.103833
      5 H                     0.050301
      6 H                     0.053527
  ----------------------------------------
  Sum of atomic charges =     0.000000

                    Cartesian Multipole Moments
 -----------------------------------------------------------------
    Charge (ESU x 10^10)
                 0.0000
    Dipole Moment (Debye)
         X      -0.0000      Y       0.0000      Z       0.0000
       Tot       0.0000
    Quadrupole Moments (Debye-Ang)
        XX     -11.8206     XY      -0.0829     YY     -12.7182
        XZ       0.1780     YZ       0.1731     ZZ     -15.6227

 Total job time:  163.66s(wall), 498.99s(cpu)
        *  Thank you very much for using Q-Chem.  Have a nice day.  *
