 Q-Chem 5.4 (devel), Q-Chem, Inc., Pleasanton, CA (2021)
 Q-Chem 5.4.1 for Intel X86 EM64T Linux

User input:
--------------------------------------------------------------
$comment
generated from CCJob.Templates
$end

$rem
sym_ignore = true
method = adc(2)
ee_states = 10
basis = cc-pVDZ
mem_static = 1024
mem_total = 40000
adc_davidson_maxiter = 900
adc_davidson_conv = 6
adc_print = 3
adc_prop_es = true
adc_prop_es2es = true
adc_prop_tpa = true
molden_format = True
state_analysis = true
print_orbitals = 15
gen_scfman = false
fde_export_density = true
fde_details = 3
$end

$molecule
0 1
H -0.021630363585096218 -0.24677771393554127 0.0642793174514152
C -1.0781864787508426 -0.524385279305991 -0.0028022603215330896
H -1.3011983967006975 -1.5931432001818984 -0.07649589871437809
C -2.0453553166936014 0.3935627944500349 0.0037395804127717215
H -1.821764187854221 1.462507693294667 0.0797635083857205
H -3.101303411069828 0.1161416034482892 -0.06091298398007136
$end
--------------------------------------------------------------

             Standard Nuclear Orientation (Angstroms)
    I     Atom           X                Y                Z
 ----------------------------------------------------------------
    1      H      -0.0216303636    -0.2467777139     0.0642793175
    2      C      -1.0781864788    -0.5243852793    -0.0028022603
    3      H      -1.3011983967    -1.5931432002    -0.0764958987
    4      C      -2.0453553167     0.3935627945     0.0037395804
    5      H      -1.8217641879     1.4625076933     0.0797635084
    6      H      -3.1013034111     0.1161416034    -0.0609129840
 ----------------------------------------------------------------

   10     -78.0396506095      9.35E-09 Convergence criterion met
 Total energy in the final basis set = -78.03965061
  Excited state 1 (singlet, A)                                     [converged]
  Term symbol:  2 (1) A                                     R^2 =  1.66923e-13
  Excitation energy:                                               8.731775 eV
  Excited state 2 (singlet, A)                                     [converged]
  Term symbol:  3 (1) A                                     R^2 =  3.10990e-13
  Excitation energy:                                               8.952420 eV
  Excited state 3 (singlet, A)                                     [converged]
  Term symbol:  4 (1) A                                     R^2 =  2.25045e-13
  Excitation energy:                                               9.141655 eV
  Excited state 4 (singlet, A)                                     [converged]
  Term symbol:  5 (1) A                                     R^2 =  6.02435e-13
  Excitation energy:                                               9.738244 eV
  Excited state 5 (singlet, A)                                     [converged]
  Term symbol:  6 (1) A                                     R^2 =  1.62895e-12
  Excitation energy:                                              10.158446 eV
  Excited state 6 (singlet, A)                                     [converged]
  Term symbol:  7 (1) A                                     R^2 =  1.21800e-11
  Excitation energy:                                              10.520819 eV
  Excited state 7 (singlet, A)                                     [converged]
  Term symbol:  8 (1) A                                     R^2 =  1.05101e-08
  Excitation energy:                                              11.433839 eV
  Excited state 8 (singlet, A)                                     [converged]
  Term symbol:  9 (1) A                                     R^2 =  2.08557e-07
  Excitation energy:                                              12.068241 eV
  Excited state 9 (singlet, A)                                     [converged]
  Term symbol:  10 (1) A                                    R^2 =  7.95967e-07
  Excitation energy:                                              12.346805 eV
  Excited state 10 (singlet, A)                                     [converged]
  Term symbol:  11 (1) A                                    R^2 =  8.88106e-07
  Excitation energy:                                              12.476788 eV
  Excitation energy:                                               0.220645 eV
  Excitation energy:                                               0.409880 eV
  Excitation energy:                                               0.189235 eV
  Excitation energy:                                               1.006470 eV
  Excitation energy:                                               0.785825 eV
  Excitation energy:                                               0.596589 eV
  Excitation energy:                                               1.426672 eV
  Excitation energy:                                               1.206027 eV
  Excitation energy:                                               1.016791 eV
  Excitation energy:                                               0.420202 eV
  Excitation energy:                                               1.789044 eV
  Excitation energy:                                               1.568399 eV
  Excitation energy:                                               1.379164 eV
  Excitation energy:                                               0.782574 eV
  Excitation energy:                                               0.362372 eV
  Excitation energy:                                               2.702065 eV
  Excitation energy:                                               2.481419 eV
  Excitation energy:                                               2.292184 eV
  Excitation energy:                                               1.695595 eV
  Excitation energy:                                               1.275393 eV
  Excitation energy:                                               0.913020 eV
  Excitation energy:                                               3.336467 eV
  Excitation energy:                                               3.115822 eV
  Excitation energy:                                               2.926586 eV
  Excitation energy:                                               2.329997 eV
  Excitation energy:                                               1.909795 eV
  Excitation energy:                                               1.547423 eV
  Excitation energy:                                               0.634402 eV
  Excitation energy:                                               3.615031 eV
  Excitation energy:                                               3.394385 eV
  Excitation energy:                                               3.205150 eV
  Excitation energy:                                               2.608561 eV
  Excitation energy:                                               2.188359 eV
  Excitation energy:                                               1.825987 eV
  Excitation energy:                                               0.912966 eV
  Excitation energy:                                               0.278564 eV
  Excitation energy:                                               3.745013 eV
  Excitation energy:                                               3.524368 eV
  Excitation energy:                                               3.335133 eV
  Excitation energy:                                               2.738543 eV
  Excitation energy:                                               2.318341 eV
  Excitation energy:                                               1.955969 eV
  Excitation energy:                                               1.042949 eV
  Excitation energy:                                               0.408546 eV
  Excitation energy:                                               0.129983 eV

                    Orbital Energies (a.u.)
 --------------------------------------------------------------

 Alpha MOs
 -- Occupied --
-11.2388 -11.2372  -1.0299  -0.7859  -0.6350  -0.5823  -0.4995  -0.3744

          Ground-State Mulliken Net Atomic Charges

     Atom                 Charge (a.u.)
  ----------------------------------------
      1 H                     0.052431
      2 C                    -0.104872
      3 H                     0.052346
      4 C                    -0.104629
      5 H                     0.052441
      6 H                     0.052283
  ----------------------------------------
  Sum of atomic charges =     0.000000

                    Cartesian Multipole Moments
 -----------------------------------------------------------------
    Charge (ESU x 10^10)
                -0.0000
    Dipole Moment (Debye)
         X      -0.0005      Y      -0.0005      Z       0.0032
       Tot       0.0033
    Quadrupole Moments (Debye-Ang)
        XX     -12.2418     XY      -0.1039     YY     -12.2611
        XZ       0.1490     YZ       0.1954     ZZ     -15.6103

 Total job time:  138.01s(wall), 402.50s(cpu)
        *  Thank you very much for using Q-Chem.  Have a nice day.  *
