 Q-Chem 5.4 (devel), Q-Chem, Inc., Pleasanton, CA (2021)
 Q-Chem 5.4.1 for Intel X86 EM64T Linux

User input:
--------------------------------------------------------------
$comment
generated from CCJob.Templates
$end

$rem
sym_ignore = true
method = adc(2)
ee_states = 10
basis = cc-pVDZ
mem_static = 1024
mem_total = 40000
adc_davidson_maxiter = 900
adc_davidson_conv = 6
adc_print = 3
adc_prop_es = true
adc_prop_es2es = true
adc_prop_tpa = true
molden_format = True
state_analysis = true
print_orbitals = 15
gen_scfman = false
fde_export_density = true
fde_details = 3
$end

$molecule
0 1
H -0.023381299504208603 -0.24743842587588666 0.06501110130604734
C -1.0772857388326673 -0.5237624233342771 -0.0022934924036307866
H -1.3015692486808377 -1.5948913841034176 -0.07782520249324977
C -2.0453860207672943 0.39318569043431867 0.0065403919036328756
H -1.8211405919191823 1.464329565203302 0.08205207199324328
H -3.099298015195903 0.11687420337585909 -0.06068560800604818
$end
--------------------------------------------------------------

             Standard Nuclear Orientation (Angstroms)
    I     Atom           X                Y                Z
 ----------------------------------------------------------------
    1      H      -0.0233812995    -0.2474384259     0.0650111013
    2      C      -1.0772857388    -0.5237624233    -0.0022934924
    3      H      -1.3015692487    -1.5948913841    -0.0778252025
    4      C      -2.0453860208     0.3931856904     0.0065403919
    5      H      -1.8211405919     1.4643295652     0.0820520720
    6      H      -3.0992980152     0.1168742034    -0.0606856080
 ----------------------------------------------------------------

   10     -78.0396331455      3.81E-09 Convergence criterion met
 Total energy in the final basis set = -78.03963315
  Excited state 1 (singlet, A)                                     [converged]
  Term symbol:  2 (1) A                                     R^2 =  1.83036e-13
  Excitation energy:                                               8.731786 eV
  Excited state 2 (singlet, A)                                     [converged]
  Term symbol:  3 (1) A                                     R^2 =  1.27184e-13
  Excitation energy:                                               8.952216 eV
  Excited state 3 (singlet, A)                                     [converged]
  Term symbol:  4 (1) A                                     R^2 =  1.55056e-13
  Excitation energy:                                               9.141635 eV
  Excited state 4 (singlet, A)                                     [converged]
  Term symbol:  5 (1) A                                     R^2 =  4.48082e-13
  Excitation energy:                                               9.737830 eV
  Excited state 5 (singlet, A)                                     [converged]
  Term symbol:  6 (1) A                                     R^2 =  1.03059e-13
  Excitation energy:                                              10.158845 eV
  Excited state 6 (singlet, A)                                     [converged]
  Term symbol:  7 (1) A                                     R^2 =  3.73977e-13
  Excitation energy:                                              10.521091 eV
  Excited state 7 (singlet, A)                                     [converged]
  Term symbol:  8 (1) A                                     R^2 =  3.12586e-10
  Excitation energy:                                              11.433751 eV
  Excited state 8 (singlet, A)                                     [converged]
  Term symbol:  9 (1) A                                     R^2 =  6.85189e-10
  Excitation energy:                                              12.068171 eV
  Excited state 9 (singlet, A)                                     [converged]
  Term symbol:  10 (1) A                                    R^2 =  5.78028e-09
  Excitation energy:                                              12.346755 eV
  Excited state 10 (singlet, A)                                     [converged]
  Term symbol:  11 (1) A                                    R^2 =  7.37016e-07
  Excitation energy:                                              12.475788 eV
  Excitation energy:                                               0.220430 eV
  Excitation energy:                                               0.409849 eV
  Excitation energy:                                               0.189419 eV
  Excitation energy:                                               1.006044 eV
  Excitation energy:                                               0.785614 eV
  Excitation energy:                                               0.596195 eV
  Excitation energy:                                               1.427059 eV
  Excitation energy:                                               1.206629 eV
  Excitation energy:                                               1.017210 eV
  Excitation energy:                                               0.421015 eV
  Excitation energy:                                               1.789305 eV
  Excitation energy:                                               1.568875 eV
  Excitation energy:                                               1.379456 eV
  Excitation energy:                                               0.783261 eV
  Excitation energy:                                               0.362246 eV
  Excitation energy:                                               2.701965 eV
  Excitation energy:                                               2.481535 eV
  Excitation energy:                                               2.292115 eV
  Excitation energy:                                               1.695920 eV
  Excitation energy:                                               1.274906 eV
  Excitation energy:                                               0.912660 eV
  Excitation energy:                                               3.336385 eV
  Excitation energy:                                               3.115955 eV
  Excitation energy:                                               2.926535 eV
  Excitation energy:                                               2.330340 eV
  Excitation energy:                                               1.909326 eV
  Excitation energy:                                               1.547080 eV
  Excitation energy:                                               0.634420 eV
  Excitation energy:                                               3.614969 eV
  Excitation energy:                                               3.394539 eV
  Excitation energy:                                               3.205120 eV
  Excitation energy:                                               2.608925 eV
  Excitation energy:                                               2.187910 eV
  Excitation energy:                                               1.825664 eV
  Excitation energy:                                               0.913004 eV
  Excitation energy:                                               0.278584 eV
  Excitation energy:                                               3.744002 eV
  Excitation energy:                                               3.523572 eV
  Excitation energy:                                               3.334153 eV
  Excitation energy:                                               2.737958 eV
  Excitation energy:                                               2.316943 eV
  Excitation energy:                                               1.954697 eV
  Excitation energy:                                               1.042037 eV
  Excitation energy:                                               0.407617 eV
  Excitation energy:                                               0.129033 eV

                    Orbital Energies (a.u.)
 --------------------------------------------------------------

 Alpha MOs
 -- Occupied --
-11.2388 -11.2372  -1.0299  -0.7859  -0.6350  -0.5824  -0.4995  -0.3744

          Ground-State Mulliken Net Atomic Charges

     Atom                 Charge (a.u.)
  ----------------------------------------
      1 H                     0.051896
      2 C                    -0.104728
      3 H                     0.052838
      4 C                    -0.104736
      5 H                     0.052837
      6 H                     0.051893
  ----------------------------------------
  Sum of atomic charges =     0.000000

                    Cartesian Multipole Moments
 -----------------------------------------------------------------
    Charge (ESU x 10^10)
                -0.0000
    Dipole Moment (Debye)
         X      -0.0000      Y       0.0000      Z       0.0000
       Tot       0.0000
    Quadrupole Moments (Debye-Ang)
        XX     -12.2370     XY      -0.1048     YY     -12.2680
        XZ       0.1565     YZ       0.1981     ZZ     -15.6098

 Total job time:  135.67s(wall), 402.06s(cpu)
        *  Thank you very much for using Q-Chem.  Have a nice day.  *
