 Q-Chem 5.4 (devel), Q-Chem, Inc., Pleasanton, CA (2021)
 Q-Chem 5.4.1 for Intel X86 EM64T Linux

User input:
--------------------------------------------------------------
$comment
generated from CCJob.Templates
$end

$rem
sym_ignore = true
method = adc(2)
ee_states = 10
basis = cc-pVDZ
mem_static = 1024
mem_total = 40000
adc_davidson_maxiter = 900
adc_davidson_conv = 6
adc_print = 3
adc_prop_es = true
adc_prop_es2es = true
adc_prop_tpa = true
molden_format = True
state_analysis = true
print_orbitals = 15
gen_scfman = false
fde_export_density = true
fde_details = 3
$end

$molecule
0 1
H -0.031988859541691284 -0.2731701957877189 0.06725946610501413
C -1.124980844568142 -0.5708851528404417 -0.0027697405535315996
H -1.3274637506133578 -1.6036991562229868 -0.08024945946392116
C -2.0540962043244018 0.3870988758542262 0.006945000026473316
H -1.811592884157199 1.457715119502134 0.08445532495603922
H -3.107039157328926 0.12718487946665466 -0.06295478881286587
$end
--------------------------------------------------------------

             Standard Nuclear Orientation (Angstroms)
    I     Atom           X                Y                Z
 ----------------------------------------------------------------
    1      H      -0.0319888595    -0.2731701958     0.0672594661
    2      C      -1.1249808446    -0.5708851528    -0.0027697406
    3      H      -1.3274637506    -1.6036991562    -0.0802494595
    4      C      -2.0540962043     0.3870988759     0.0069450000
    5      H      -1.8115928842     1.4577151195     0.0844553250
    6      H      -3.1070391573     0.1271848795    -0.0629547888
 ----------------------------------------------------------------

   11     -78.0370670370      6.58E-09 Convergence criterion met
 Total energy in the final basis set = -78.03706704
  Excited state 1 (singlet, A)                                     [converged]
  Term symbol:  2 (1) A                                     R^2 =  4.54149e-13
  Excitation energy:                                               8.722204 eV
  Excited state 2 (singlet, A)                                     [converged]
  Term symbol:  3 (1) A                                     R^2 =  3.27185e-13
  Excitation energy:                                               8.888385 eV
  Excited state 3 (singlet, A)                                     [converged]
  Term symbol:  4 (1) A                                     R^2 =  2.70905e-13
  Excitation energy:                                               9.106504 eV
  Excited state 4 (singlet, A)                                     [converged]
  Term symbol:  5 (1) A                                     R^2 =  3.83945e-13
  Excitation energy:                                               9.759347 eV
  Excited state 5 (singlet, A)                                     [converged]
  Term symbol:  6 (1) A                                     R^2 =  1.34433e-13
  Excitation energy:                                              10.166479 eV
  Excited state 6 (singlet, A)                                     [converged]
  Term symbol:  7 (1) A                                     R^2 =  4.37173e-13
  Excitation energy:                                              10.539122 eV
  Excited state 7 (singlet, A)                                     [converged]
  Term symbol:  8 (1) A                                     R^2 =  6.96391e-12
  Excitation energy:                                              11.376484 eV
  Excited state 8 (singlet, A)                                     [converged]
  Term symbol:  9 (1) A                                     R^2 =  3.93398e-11
  Excitation energy:                                              12.054143 eV
  Excited state 9 (singlet, A)                                     [converged]
  Term symbol:  10 (1) A                                    R^2 =  2.17348e-09
  Excitation energy:                                              12.329347 eV
  Excited state 10 (singlet, A)                                     [converged]
  Term symbol:  11 (1) A                                    R^2 =  4.64872e-07
  Excitation energy:                                              12.445900 eV
  Excitation energy:                                               0.166181 eV
  Excitation energy:                                               0.384300 eV
  Excitation energy:                                               0.218119 eV
  Excitation energy:                                               1.037143 eV
  Excitation energy:                                               0.870962 eV
  Excitation energy:                                               0.652843 eV
  Excitation energy:                                               1.444275 eV
  Excitation energy:                                               1.278094 eV
  Excitation energy:                                               1.059975 eV
  Excitation energy:                                               0.407132 eV
  Excitation energy:                                               1.816918 eV
  Excitation energy:                                               1.650737 eV
  Excitation energy:                                               1.432618 eV
  Excitation energy:                                               0.779775 eV
  Excitation energy:                                               0.372643 eV
  Excitation energy:                                               2.654280 eV
  Excitation energy:                                               2.488099 eV
  Excitation energy:                                               2.269980 eV
  Excitation energy:                                               1.617137 eV
  Excitation energy:                                               1.210005 eV
  Excitation energy:                                               0.837362 eV
  Excitation energy:                                               3.331939 eV
  Excitation energy:                                               3.165758 eV
  Excitation energy:                                               2.947639 eV
  Excitation energy:                                               2.294796 eV
  Excitation energy:                                               1.887664 eV
  Excitation energy:                                               1.515021 eV
  Excitation energy:                                               0.677659 eV
  Excitation energy:                                               3.607142 eV
  Excitation energy:                                               3.440962 eV
  Excitation energy:                                               3.222843 eV
  Excitation energy:                                               2.570000 eV
  Excitation energy:                                               2.162868 eV
  Excitation energy:                                               1.790225 eV
  Excitation energy:                                               0.952863 eV
  Excitation energy:                                               0.275204 eV
  Excitation energy:                                               3.723696 eV
  Excitation energy:                                               3.557515 eV
  Excitation energy:                                               3.339396 eV
  Excitation energy:                                               2.686553 eV
  Excitation energy:                                               2.279421 eV
  Excitation energy:                                               1.906778 eV
  Excitation energy:                                               1.069416 eV
  Excitation energy:                                               0.391757 eV
  Excitation energy:                                               0.116553 eV

                    Orbital Energies (a.u.)
 --------------------------------------------------------------

 Alpha MOs
 -- Occupied --
-11.2392 -11.2376  -1.0299  -0.7872  -0.6354  -0.5833  -0.4976  -0.3743

          Ground-State Mulliken Net Atomic Charges

     Atom                 Charge (a.u.)
  ----------------------------------------
      1 H                     0.056202
      2 C                    -0.103062
      3 H                     0.044789
      4 C                    -0.103158
      5 H                     0.056037
      6 H                     0.049192
  ----------------------------------------
  Sum of atomic charges =     0.000000

                    Cartesian Multipole Moments
 -----------------------------------------------------------------
    Charge (ESU x 10^10)
                 0.0000
    Dipole Moment (Debye)
         X      -0.0299      Y      -0.0192      Z      -0.0086
       Tot       0.0365
    Quadrupole Moments (Debye-Ang)
        XX     -12.3386     XY      -0.0737     YY     -12.0818
        XZ       0.1664     YZ       0.2159     ZZ     -15.6126

 Total job time:  210.17s(wall), 489.94s(cpu)
        *  Thank you very much for using Q-Chem.  Have a nice day.  *
