 Q-Chem 5.4 (devel), Q-Chem, Inc., Pleasanton, CA (2021)
 Q-Chem 5.4.1 for Intel X86 EM64T Linux

User input:
--------------------------------------------------------------
$comment
generated from CCJob.Templates
$end

$rem
sym_ignore = true
method = adc(2)
ee_states = 10
basis = cc-pVDZ
mem_static = 1024
mem_total = 40000
adc_davidson_maxiter = 900
adc_davidson_conv = 6
adc_print = 3
adc_prop_es = true
adc_prop_es2es = true
adc_prop_tpa = true
molden_format = True
state_analysis = true
print_orbitals = 15
gen_scfman = false
fde_export_density = true
fde_details = 3
$end

$molecule
0 1
H -0.019670912143589913 -0.2464363180565693 0.06524969726442023
C -1.07832593067986 -0.5240237834144631 -0.0023592084011045513
H -1.301647460571012 -1.5949454716484197 -0.07783188246060936
C -2.0451747246797503 0.3942382462854396 0.006613799898887335
H -1.8219533077709482 1.4605730418519278 0.08178670003940222
H -3.099257259643947 0.11695259924333336 -0.06067869203556354
$end
--------------------------------------------------------------

             Standard Nuclear Orientation (Angstroms)
    I     Atom           X                Y                Z
 ----------------------------------------------------------------
    1      H      -0.0196709121    -0.2464363181     0.0652496973
    2      C      -1.0783259307    -0.5240237834    -0.0023592084
    3      H      -1.3016474606    -1.5949454716    -0.0778318825
    4      C      -2.0451747247     0.3942382463     0.0066137999
    5      H      -1.8219533078     1.4605730419     0.0817867000
    6      H      -3.0992572596     0.1169525992    -0.0606786920
 ----------------------------------------------------------------

   11     -78.0396385638      8.06E-09 Convergence criterion met
 Total energy in the final basis set = -78.03963856
  Excited state 1 (singlet, A)                                     [converged]
  Term symbol:  2 (1) A                                     R^2 =  3.80090e-10
  Excitation energy:                                               8.731815 eV
  Excited state 2 (singlet, A)                                     [converged]
  Term symbol:  3 (1) A                                     R^2 =  2.42369e-12
  Excitation energy:                                               8.952422 eV
  Excited state 3 (singlet, A)                                     [converged]
  Term symbol:  4 (1) A                                     R^2 =  4.92074e-12
  Excitation energy:                                               9.141555 eV
  Excited state 4 (singlet, A)                                     [converged]
  Term symbol:  5 (1) A                                     R^2 =  4.41497e-12
  Excitation energy:                                               9.738209 eV
  Excited state 5 (singlet, A)                                     [converged]
  Term symbol:  6 (1) A                                     R^2 =  2.51080e-11
  Excitation energy:                                              10.158502 eV
  Excited state 6 (singlet, A)                                     [converged]
  Term symbol:  7 (1) A                                     R^2 =  7.30717e-11
  Excitation energy:                                              10.520843 eV
  Excited state 7 (singlet, A)                                     [converged]
  Term symbol:  8 (1) A                                     R^2 =  1.85793e-07
  Excitation energy:                                              11.433710 eV
  Excited state 8 (singlet, A)                                     [converged]
  Term symbol:  9 (1) A                                     R^2 =  2.65597e-08
  Excitation energy:                                              12.068345 eV
  Excited state 9 (singlet, A)                                     [converged]
  Term symbol:  10 (1) A                                    R^2 =  9.27941e-08
  Excitation energy:                                              12.346841 eV
  Excited state 10 (singlet, A)                                     [converged]
  Term symbol:  11 (1) A                                    R^2 =  6.62031e-07
  Excitation energy:                                              12.476755 eV
  Excitation energy:                                               0.220607 eV
  Excitation energy:                                               0.409740 eV
  Excitation energy:                                               0.189133 eV
  Excitation energy:                                               1.006393 eV
  Excitation energy:                                               0.785787 eV
  Excitation energy:                                               0.596654 eV
  Excitation energy:                                               1.426686 eV
  Excitation energy:                                               1.206080 eV
  Excitation energy:                                               1.016947 eV
  Excitation energy:                                               0.420293 eV
  Excitation energy:                                               1.789028 eV
  Excitation energy:                                               1.568421 eV
  Excitation energy:                                               1.379288 eV
  Excitation energy:                                               0.782634 eV
  Excitation energy:                                               0.362341 eV
  Excitation energy:                                               2.701895 eV
  Excitation energy:                                               2.481289 eV
  Excitation energy:                                               2.292155 eV
  Excitation energy:                                               1.695502 eV
  Excitation energy:                                               1.275209 eV
  Excitation energy:                                               0.912867 eV
  Excitation energy:                                               3.336529 eV
  Excitation energy:                                               3.115923 eV
  Excitation energy:                                               2.926790 eV
  Excitation energy:                                               2.330136 eV
  Excitation energy:                                               1.909843 eV
  Excitation energy:                                               1.547502 eV
  Excitation energy:                                               0.634634 eV
  Excitation energy:                                               3.615026 eV
  Excitation energy:                                               3.394420 eV
  Excitation energy:                                               3.205287 eV
  Excitation energy:                                               2.608633 eV
  Excitation energy:                                               2.188340 eV
  Excitation energy:                                               1.825999 eV
  Excitation energy:                                               0.913131 eV
  Excitation energy:                                               0.278497 eV
  Excitation energy:                                               3.744940 eV
  Excitation energy:                                               3.524333 eV
  Excitation energy:                                               3.335200 eV
  Excitation energy:                                               2.738547 eV
  Excitation energy:                                               2.318254 eV
  Excitation energy:                                               1.955912 eV
  Excitation energy:                                               1.043045 eV
  Excitation energy:                                               0.408411 eV
  Excitation energy:                                               0.129914 eV

                    Orbital Energies (a.u.)
 --------------------------------------------------------------

 Alpha MOs
 -- Occupied --
-11.2389 -11.2370  -1.0299  -0.7859  -0.6350  -0.5823  -0.4995  -0.3744

          Ground-State Mulliken Net Atomic Charges

     Atom                 Charge (a.u.)
  ----------------------------------------
      1 H                     0.052967
      2 C                    -0.107688
      3 H                     0.052977
      4 C                    -0.101794
      5 H                     0.051773
      6 H                     0.051764
  ----------------------------------------
  Sum of atomic charges =     0.000000

                    Cartesian Multipole Moments
 -----------------------------------------------------------------
    Charge (ESU x 10^10)
                -0.0000
    Dipole Moment (Debye)
         X      -0.0019      Y       0.0019      Z       0.0001
       Tot       0.0027
    Quadrupole Moments (Debye-Ang)
        XX     -12.2394     XY      -0.1080     YY     -12.2597
        XZ       0.1560     YZ       0.1986     ZZ     -15.6097

 Total job time:  121.37s(wall), 365.96s(cpu)
        *  Thank you very much for using Q-Chem.  Have a nice day.  *
