 Q-Chem 5.4 (devel), Q-Chem, Inc., Pleasanton, CA (2021)
 Q-Chem 5.4.1 for Intel X86 EM64T Linux

User input:
--------------------------------------------------------------
$comment
generated from CCJob.Templates
$end

$rem
sym_ignore = true
method = adc(2)
ee_states = 10
basis = cc-pVDZ
mem_static = 1024
mem_total = 40000
adc_davidson_maxiter = 900
adc_davidson_conv = 6
adc_print = 3
adc_prop_es = true
adc_prop_es2es = true
adc_prop_tpa = true
molden_format = True
state_analysis = true
print_orbitals = 15
gen_scfman = false
fde_export_density = true
fde_details = 3
$end

$molecule
0 1
H -0.021540435602089698 -0.24707892986712296 0.0671910686363881
C -1.077496222933446 -0.524677543216821 -0.001773440589545162
H -1.300930956787235 -1.5930561321954155 -0.07883413413407928
C -2.044493140885703 0.39345065052609807 0.0048599124626261606
H -1.8215816918762855 1.462303469356059 0.08272451974221626
H -3.1009435871613817 0.11632545942779489 -0.06320190322826653
$end
--------------------------------------------------------------

             Standard Nuclear Orientation (Angstroms)
    I     Atom           X                Y                Z
 ----------------------------------------------------------------
    1      H      -0.0215404356    -0.2470789299     0.0671910686
    2      C      -1.0774962229    -0.5246775432    -0.0017734406
    3      H      -1.3009309568    -1.5930561322    -0.0788341341
    4      C      -2.0444931409     0.3934506505     0.0048599125
    5      H      -1.8215816919     1.4623034694     0.0827245197
    6      H      -3.1009435872     0.1163254594    -0.0632019032
 ----------------------------------------------------------------

   10     -78.0396511897      9.53E-09 Convergence criterion met
 Total energy in the final basis set = -78.03965119
  Excited state 1 (singlet, A)                                     [converged]
  Term symbol:  2 (1) A                                     R^2 =  4.08912e-14
  Excitation energy:                                               8.731787 eV
  Excited state 2 (singlet, A)                                     [converged]
  Term symbol:  3 (1) A                                     R^2 =  5.03063e-14
  Excitation energy:                                               8.952439 eV
  Excited state 3 (singlet, A)                                     [converged]
  Term symbol:  4 (1) A                                     R^2 =  1.23212e-13
  Excitation energy:                                               9.141657 eV
  Excited state 4 (singlet, A)                                     [converged]
  Term symbol:  5 (1) A                                     R^2 =  4.03051e-13
  Excitation energy:                                               9.738241 eV
  Excited state 5 (singlet, A)                                     [converged]
  Term symbol:  6 (1) A                                     R^2 =  2.81599e-12
  Excitation energy:                                              10.158445 eV
  Excited state 6 (singlet, A)                                     [converged]
  Term symbol:  7 (1) A                                     R^2 =  2.65436e-11
  Excitation energy:                                              10.520818 eV
  Excited state 7 (singlet, A)                                     [converged]
  Term symbol:  8 (1) A                                     R^2 =  3.59641e-08
  Excitation energy:                                              11.433848 eV
  Excited state 8 (singlet, A)                                     [converged]
  Term symbol:  9 (1) A                                     R^2 =  1.26566e-07
  Excitation energy:                                              12.068253 eV
  Excited state 9 (singlet, A)                                     [converged]
  Term symbol:  10 (1) A                                    R^2 =  5.54360e-07
  Excitation energy:                                              12.346809 eV
  Excited state 10 (singlet, A)                                     [converged]
  Term symbol:  11 (1) A                                    R^2 =  4.08609e-07
  Excitation energy:                                              12.476793 eV
  Excitation energy:                                               0.220652 eV
  Excitation energy:                                               0.409870 eV
  Excitation energy:                                               0.189218 eV
  Excitation energy:                                               1.006453 eV
  Excitation energy:                                               0.785802 eV
  Excitation energy:                                               0.596583 eV
  Excitation energy:                                               1.426658 eV
  Excitation energy:                                               1.206006 eV
  Excitation energy:                                               1.016788 eV
  Excitation energy:                                               0.420205 eV
  Excitation energy:                                               1.789031 eV
  Excitation energy:                                               1.568379 eV
  Excitation energy:                                               1.379160 eV
  Excitation energy:                                               0.782577 eV
  Excitation energy:                                               0.362373 eV
  Excitation energy:                                               2.702060 eV
  Excitation energy:                                               2.481409 eV
  Excitation energy:                                               2.292190 eV
  Excitation energy:                                               1.695607 eV
  Excitation energy:                                               1.275402 eV
  Excitation energy:                                               0.913030 eV
  Excitation energy:                                               3.336466 eV
  Excitation energy:                                               3.115814 eV
  Excitation energy:                                               2.926595 eV
  Excitation energy:                                               2.330012 eV
  Excitation energy:                                               1.909808 eV
  Excitation energy:                                               1.547435 eV
  Excitation energy:                                               0.634405 eV
  Excitation energy:                                               3.615022 eV
  Excitation energy:                                               3.394370 eV
  Excitation energy:                                               3.205152 eV
  Excitation energy:                                               2.608569 eV
  Excitation energy:                                               2.188364 eV
  Excitation energy:                                               1.825991 eV
  Excitation energy:                                               0.912962 eV
  Excitation energy:                                               0.278557 eV
  Excitation energy:                                               3.745006 eV
  Excitation energy:                                               3.524354 eV
  Excitation energy:                                               3.335136 eV
  Excitation energy:                                               2.738553 eV
  Excitation energy:                                               2.318348 eV
  Excitation energy:                                               1.955975 eV
  Excitation energy:                                               1.042946 eV
  Excitation energy:                                               0.408541 eV
  Excitation energy:                                               0.129984 eV

                    Orbital Energies (a.u.)
 --------------------------------------------------------------

 Alpha MOs
 -- Occupied --
-11.2388 -11.2372  -1.0299  -0.7859  -0.6350  -0.5823  -0.4995  -0.3744

          Ground-State Mulliken Net Atomic Charges

     Atom                 Charge (a.u.)
  ----------------------------------------
      1 H                     0.052342
      2 C                    -0.104471
      3 H                     0.052356
      4 C                    -0.105031
      5 H                     0.052420
      6 H                     0.052383
  ----------------------------------------
  Sum of atomic charges =     0.000000

                    Cartesian Multipole Moments
 -----------------------------------------------------------------
    Charge (ESU x 10^10)
                -0.0000
    Dipole Moment (Debye)
         X      -0.0001      Y      -0.0001      Z       0.0012
       Tot       0.0012
    Quadrupole Moments (Debye-Ang)
        XX     -12.2443     XY      -0.1054     YY     -12.2612
        XZ       0.1584     YZ       0.2023     ZZ     -15.6089

 Total job time:  144.40s(wall), 426.14s(cpu)
        *  Thank you very much for using Q-Chem.  Have a nice day.  *
