 Q-Chem 5.4 (devel), Q-Chem, Inc., Pleasanton, CA (2021)
 Q-Chem 5.4.1 for Intel X86 EM64T Linux

User input:
--------------------------------------------------------------
$comment
generated from CCJob.Templates
$end

$rem
sym_ignore = true
method = adc(2)
ee_states = 10
basis = cc-pVDZ
mem_static = 1024
mem_total = 40000
adc_davidson_maxiter = 900
adc_davidson_conv = 6
adc_print = 3
adc_prop_es = true
adc_prop_es2es = true
adc_prop_tpa = true
molden_format = True
state_analysis = true
print_orbitals = 15
gen_scfman = false
fde_export_density = true
fde_details = 3
$end

$molecule
0 1
H -0.0348278765 -0.2442097827 0.0636489606
C -1.0765972949 -0.5242748755 -0.0023551776
H -1.353264467 -1.5767591607 -0.0757276926
C -2.043634118 0.3926884087 0.0061254933
H -1.8137616575 1.4459188338 0.0804456828
H -3.085977293 0.114931858 -0.0593381042
$end
--------------------------------------------------------------

             Standard Nuclear Orientation (Angstroms)
    I     Atom           X                Y                Z
 ----------------------------------------------------------------
    1      H      -0.0348278765    -0.2442097827     0.0636489606
    2      C      -1.0765972949    -0.5242748755    -0.0023551776
    3      H      -1.3532644670    -1.5767591607    -0.0757276926
    4      C      -2.0436341180     0.3926884087     0.0061254933
    5      H      -1.8137616575     1.4459188338     0.0804456828
    6      H      -3.0859772930     0.1149318580    -0.0593381042
 ----------------------------------------------------------------

   11     -78.0395950665      7.71E-09 Convergence criterion met
 Total energy in the final basis set = -78.03959507
  Excited state 1 (singlet, A)                                     [converged]
  Term symbol:  2 (1) A                                     R^2 =  2.22698e-13
  Excitation energy:                                               8.740050 eV
  Excited state 2 (singlet, A)                                     [converged]
  Term symbol:  3 (1) A                                     R^2 =  1.84925e-13
  Excitation energy:                                               9.066281 eV
  Excited state 3 (singlet, A)                                     [converged]
  Term symbol:  4 (1) A                                     R^2 =  1.37681e-13
  Excitation energy:                                               9.133771 eV
  Excited state 4 (singlet, A)                                     [converged]
  Term symbol:  5 (1) A                                     R^2 =  2.72716e-13
  Excitation energy:                                               9.820990 eV
  Excited state 5 (singlet, A)                                     [converged]
  Term symbol:  6 (1) A                                     R^2 =  2.82587e-13
  Excitation energy:                                              10.185232 eV
  Excited state 6 (singlet, A)                                     [converged]
  Term symbol:  7 (1) A                                     R^2 =  2.88131e-13
  Excitation energy:                                              10.515108 eV
  Excited state 7 (singlet, A)                                     [converged]
  Term symbol:  8 (1) A                                     R^2 =  1.46586e-11
  Excitation energy:                                              11.531725 eV
  Excited state 8 (singlet, A)                                     [converged]
  Term symbol:  9 (1) A                                     R^2 =  9.68545e-12
  Excitation energy:                                              12.181348 eV
  Excited state 9 (singlet, A)                                     [converged]
  Term symbol:  10 (1) A                                    R^2 =  2.60937e-10
  Excitation energy:                                              12.434536 eV
  Excited state 10 (singlet, A)                                     [converged]
  Term symbol:  11 (1) A                                    R^2 =  7.70346e-07
  Excitation energy:                                              12.636161 eV
  Excitation energy:                                               0.326231 eV
  Excitation energy:                                               0.393721 eV
  Excitation energy:                                               0.067490 eV
  Excitation energy:                                               1.080940 eV
  Excitation energy:                                               0.754709 eV
  Excitation energy:                                               0.687219 eV
  Excitation energy:                                               1.445182 eV
  Excitation energy:                                               1.118951 eV
  Excitation energy:                                               1.051460 eV
  Excitation energy:                                               0.364242 eV
  Excitation energy:                                               1.775058 eV
  Excitation energy:                                               1.448827 eV
  Excitation energy:                                               1.381337 eV
  Excitation energy:                                               0.694118 eV
  Excitation energy:                                               0.329876 eV
  Excitation energy:                                               2.791675 eV
  Excitation energy:                                               2.465444 eV
  Excitation energy:                                               2.397954 eV
  Excitation energy:                                               1.710735 eV
  Excitation energy:                                               1.346493 eV
  Excitation energy:                                               1.016617 eV
  Excitation energy:                                               3.441298 eV
  Excitation energy:                                               3.115067 eV
  Excitation energy:                                               3.047577 eV
  Excitation energy:                                               2.360358 eV
  Excitation energy:                                               1.996116 eV
  Excitation energy:                                               1.666240 eV
  Excitation energy:                                               0.649623 eV
  Excitation energy:                                               3.694487 eV
  Excitation energy:                                               3.368255 eV
  Excitation energy:                                               3.300765 eV
  Excitation energy:                                               2.613547 eV
  Excitation energy:                                               2.249305 eV
  Excitation energy:                                               1.919428 eV
  Excitation energy:                                               0.902812 eV
  Excitation energy:                                               0.253188 eV
  Excitation energy:                                               3.896111 eV
  Excitation energy:                                               3.569880 eV
  Excitation energy:                                               3.502390 eV
  Excitation energy:                                               2.815171 eV
  Excitation energy:                                               2.450929 eV
  Excitation energy:                                               2.121053 eV
  Excitation energy:                                               1.104436 eV
  Excitation energy:                                               0.454813 eV
  Excitation energy:                                               0.201624 eV

                    Orbital Energies (a.u.)
 --------------------------------------------------------------

 Alpha MOs
 -- Occupied --
-11.2355 -11.2334  -1.0324  -0.7875  -0.6424  -0.5791  -0.5048  -0.3740

          Ground-State Mulliken Net Atomic Charges

     Atom                 Charge (a.u.)
  ----------------------------------------
      1 H                     0.049968
      2 C                    -0.098082
      3 H                     0.050175
      4 C                    -0.095643
      5 H                     0.046341
      6 H                     0.047240
  ----------------------------------------
  Sum of atomic charges =     0.000000

                    Cartesian Multipole Moments
 -----------------------------------------------------------------
    Charge (ESU x 10^10)
                -0.0000
    Dipole Moment (Debye)
         X      -0.0092      Y       0.0123      Z       0.0028
       Tot       0.0156
    Quadrupole Moments (Debye-Ang)
        XX     -12.1674     XY      -0.0003     YY     -12.3248
        XZ       0.1563     YZ       0.1919     ZZ     -15.5550

 Total job time:  81.24s(wall), 251.23s(cpu)
        *  Thank you very much for using Q-Chem.  Have a nice day.  *
