 Q-Chem 5.4 (devel), Q-Chem, Inc., Pleasanton, CA (2021)
 Q-Chem 5.4.1 for Intel X86 EM64T Linux

User input:
--------------------------------------------------------------
$comment
generated from CCJob.Templates
$end

$rem
sym_ignore = true
method = adc(2)
ee_states = 10
basis = cc-pVDZ
mem_static = 1024
mem_total = 40000
adc_davidson_maxiter = 900
adc_davidson_conv = 6
adc_print = 3
adc_prop_es = true
adc_prop_es2es = true
adc_prop_tpa = true
molden_format = True
state_analysis = true
print_orbitals = 15
gen_scfman = false
fde_export_density = true
fde_details = 3
$end

$molecule
0 1
H -0.02343037571138571 -0.2495301860510139 0.10509186766350795
C -1.0779313068011827 -0.5243730552972938 -0.002414220403027943
H -1.299246940584361 -1.5906473120583868 -0.11748442085307104
C -2.0447816408012964 0.3938887984027157 0.006558519896957864
H -1.8195529677843845 1.4648720014415892 0.042134041646919515
H -3.1030165952113054 0.11386039524910437 -0.020835185636416335
$end
--------------------------------------------------------------

             Standard Nuclear Orientation (Angstroms)
    I     Atom           X                Y                Z
 ----------------------------------------------------------------
    1      H      -0.0234303757    -0.2495301861     0.1050918677
    2      C      -1.0779313068    -0.5243730553    -0.0024142204
    3      H      -1.2992469406    -1.5906473121    -0.1174844209
    4      C      -2.0447816408     0.3938887984     0.0065585199
    5      H      -1.8195529678     1.4648720014     0.0421340416
    6      H      -3.1030165952     0.1138603952    -0.0208351856
 ----------------------------------------------------------------

   10     -78.0390656048      6.08E-09 Convergence criterion met
 Total energy in the final basis set = -78.03906560
  Excited state 1 (singlet, A)                                     [converged]
  Term symbol:  2 (1) A                                     R^2 =  2.55595e-13
  Excitation energy:                                               8.595126 eV
  Excited state 2 (singlet, A)                                     [converged]
  Term symbol:  3 (1) A                                     R^2 =  7.36500e-13
  Excitation energy:                                               9.032065 eV
  Excited state 3 (singlet, A)                                     [converged]
  Term symbol:  4 (1) A                                     R^2 =  2.58206e-13
  Excitation energy:                                               9.119036 eV
  Excited state 4 (singlet, A)                                     [converged]
  Term symbol:  5 (1) A                                     R^2 =  8.20420e-13
  Excitation energy:                                               9.745480 eV
  Excited state 5 (singlet, A)                                     [converged]
  Term symbol:  6 (1) A                                     R^2 =  1.84488e-11
  Excitation energy:                                              10.136839 eV
  Excited state 6 (singlet, A)                                     [converged]
  Term symbol:  7 (1) A                                     R^2 =  1.72647e-10
  Excitation energy:                                              10.501451 eV
  Excited state 7 (singlet, A)                                     [converged]
  Term symbol:  8 (1) A                                     R^2 =  5.20501e-08
  Excitation energy:                                              11.447956 eV
  Excited state 8 (singlet, A)                                     [converged]
  Term symbol:  9 (1) A                                     R^2 =  1.76686e-08
  Excitation energy:                                              12.048638 eV
  Excited state 9 (singlet, A)                                     [converged]
  Term symbol:  10 (1) A                                    R^2 =  1.75372e-07
  Excitation energy:                                              12.322621 eV
  Excited state 10 (singlet, A)                                     [converged]
  Term symbol:  11 (1) A                                    R^2 =  7.23667e-07
  Excitation energy:                                              12.491117 eV
  Excitation energy:                                               0.436939 eV
  Excitation energy:                                               0.523910 eV
  Excitation energy:                                               0.086971 eV
  Excitation energy:                                               1.150354 eV
  Excitation energy:                                               0.713415 eV
  Excitation energy:                                               0.626444 eV
  Excitation energy:                                               1.541713 eV
  Excitation energy:                                               1.104774 eV
  Excitation energy:                                               1.017803 eV
  Excitation energy:                                               0.391359 eV
  Excitation energy:                                               1.906325 eV
  Excitation energy:                                               1.469386 eV
  Excitation energy:                                               1.382415 eV
  Excitation energy:                                               0.755971 eV
  Excitation energy:                                               0.364612 eV
  Excitation energy:                                               2.852830 eV
  Excitation energy:                                               2.415891 eV
  Excitation energy:                                               2.328920 eV
  Excitation energy:                                               1.702476 eV
  Excitation energy:                                               1.311117 eV
  Excitation energy:                                               0.946505 eV
  Excitation energy:                                               3.453512 eV
  Excitation energy:                                               3.016573 eV
  Excitation energy:                                               2.929602 eV
  Excitation energy:                                               2.303158 eV
  Excitation energy:                                               1.911799 eV
  Excitation energy:                                               1.547187 eV
  Excitation energy:                                               0.600682 eV
  Excitation energy:                                               3.727495 eV
  Excitation energy:                                               3.290556 eV
  Excitation energy:                                               3.203585 eV
  Excitation energy:                                               2.577141 eV
  Excitation energy:                                               2.185782 eV
  Excitation energy:                                               1.821170 eV
  Excitation energy:                                               0.874665 eV
  Excitation energy:                                               0.273983 eV
  Excitation energy:                                               3.895991 eV
  Excitation energy:                                               3.459052 eV
  Excitation energy:                                               3.372081 eV
  Excitation energy:                                               2.745637 eV
  Excitation energy:                                               2.354278 eV
  Excitation energy:                                               1.989666 eV
  Excitation energy:                                               1.043161 eV
  Excitation energy:                                               0.442479 eV
  Excitation energy:                                               0.168496 eV

                    Orbital Energies (a.u.)
 --------------------------------------------------------------

 Alpha MOs
 -- Occupied --
-11.2390 -11.2373  -1.0298  -0.7855  -0.6348  -0.5821  -0.4999  -0.3738

          Ground-State Mulliken Net Atomic Charges

     Atom                 Charge (a.u.)
  ----------------------------------------
      1 H                     0.052734
      2 C                    -0.105532
      3 H                     0.052742
      4 C                    -0.105432
      5 H                     0.052746
      6 H                     0.052742
  ----------------------------------------
  Sum of atomic charges =     0.000000

                    Cartesian Multipole Moments
 -----------------------------------------------------------------
    Charge (ESU x 10^10)
                -0.0000
    Dipole Moment (Debye)
         X       0.0000      Y      -0.0001      Z       0.0004
       Tot       0.0005
    Quadrupole Moments (Debye-Ang)
        XX     -12.2531     XY      -0.1038     YY     -12.2667
        XZ       0.1549     YZ       0.1978     ZZ     -15.6047

 Total job time:  142.39s(wall), 435.63s(cpu)
        *  Thank you very much for using Q-Chem.  Have a nice day.  *
