 Q-Chem 5.4 (devel), Q-Chem, Inc., Pleasanton, CA (2021)
 Q-Chem 5.4.1 for Intel X86 EM64T Linux

User input:
--------------------------------------------------------------
$comment
generated from CCJob.Templates
$end

$rem
sym_ignore = true
method = adc(2)
ee_states = 10
basis = cc-pVDZ
mem_static = 1024
mem_total = 40000
adc_davidson_maxiter = 900
adc_davidson_conv = 6
adc_print = 3
adc_prop_es = true
adc_prop_es2es = true
adc_prop_tpa = true
molden_format = True
state_analysis = true
print_orbitals = 15
gen_scfman = false
fde_export_density = true
fde_details = 3
$end

$molecule
0 1
H -0.0348278765 -0.2442097827 0.0636489606
C -1.0765972949 -0.5242748755 -0.0023551776
H -1.313264467 -1.5767591607 -0.0757276926
C -2.043634118 0.3926884087 0.0061254933
H -1.8137616575 1.4459188338 0.0804456828
H -3.085977293 0.104931858 -0.0593381042
$end
--------------------------------------------------------------

             Standard Nuclear Orientation (Angstroms)
    I     Atom           X                Y                Z
 ----------------------------------------------------------------
    1      H      -0.0348278765    -0.2442097827     0.0636489606
    2      C      -1.0765972949    -0.5242748755    -0.0023551776
    3      H      -1.3132644670    -1.5767591607    -0.0757276926
    4      C      -2.0436341180     0.3926884087     0.0061254933
    5      H      -1.8137616575     1.4459188338     0.0804456828
    6      H      -3.0859772930     0.1049318580    -0.0593381042
 ----------------------------------------------------------------

   11     -78.0399149134      4.07E-09 Convergence criterion met
 Total energy in the final basis set = -78.03991491
  Excited state 1 (singlet, A)                                     [converged]
  Term symbol:  2 (1) A                                     R^2 =  1.83631e-13
  Excitation energy:                                               8.737911 eV
  Excited state 2 (singlet, A)                                     [converged]
  Term symbol:  3 (1) A                                     R^2 =  1.79580e-13
  Excitation energy:                                               9.059477 eV
  Excited state 3 (singlet, A)                                     [converged]
  Term symbol:  4 (1) A                                     R^2 =  1.95302e-13
  Excitation energy:                                               9.161718 eV
  Excited state 4 (singlet, A)                                     [converged]
  Term symbol:  5 (1) A                                     R^2 =  2.26135e-13
  Excitation energy:                                               9.829831 eV
  Excited state 5 (singlet, A)                                     [converged]
  Term symbol:  6 (1) A                                     R^2 =  1.90712e-13
  Excitation energy:                                              10.204988 eV
  Excited state 6 (singlet, A)                                     [converged]
  Term symbol:  7 (1) A                                     R^2 =  8.59197e-13
  Excitation energy:                                              10.529505 eV
  Excited state 7 (singlet, A)                                     [converged]
  Term symbol:  8 (1) A                                     R^2 =  1.77930e-10
  Excitation energy:                                              11.552237 eV
  Excited state 8 (singlet, A)                                     [converged]
  Term symbol:  9 (1) A                                     R^2 =  2.03285e-10
  Excitation energy:                                              12.169622 eV
  Excited state 9 (singlet, A)                                     [converged]
  Term symbol:  10 (1) A                                    R^2 =  2.51356e-09
  Excitation energy:                                              12.420922 eV
  Excited state 10 (singlet, A)                                     [converged]
  Term symbol:  11 (1) A                                    R^2 =  5.06913e-07
  Excitation energy:                                              12.644214 eV
  Excitation energy:                                               0.321566 eV
  Excitation energy:                                               0.423807 eV
  Excitation energy:                                               0.102241 eV
  Excitation energy:                                               1.091920 eV
  Excitation energy:                                               0.770354 eV
  Excitation energy:                                               0.668113 eV
  Excitation energy:                                               1.467077 eV
  Excitation energy:                                               1.145510 eV
  Excitation energy:                                               1.043269 eV
  Excitation energy:                                               0.375156 eV
  Excitation energy:                                               1.791594 eV
  Excitation energy:                                               1.470028 eV
  Excitation energy:                                               1.367787 eV
  Excitation energy:                                               0.699674 eV
  Excitation energy:                                               0.324517 eV
  Excitation energy:                                               2.814326 eV
  Excitation energy:                                               2.492760 eV
  Excitation energy:                                               2.390519 eV
  Excitation energy:                                               1.722406 eV
  Excitation energy:                                               1.347250 eV
  Excitation energy:                                               1.022732 eV
  Excitation energy:                                               3.431711 eV
  Excitation energy:                                               3.110144 eV
  Excitation energy:                                               3.007903 eV
  Excitation energy:                                               2.339790 eV
  Excitation energy:                                               1.964634 eV
  Excitation energy:                                               1.640117 eV
  Excitation energy:                                               0.617384 eV
  Excitation energy:                                               3.683011 eV
  Excitation energy:                                               3.361444 eV
  Excitation energy:                                               3.259204 eV
  Excitation energy:                                               2.591090 eV
  Excitation energy:                                               2.215934 eV
  Excitation energy:                                               1.891417 eV
  Excitation energy:                                               0.868684 eV
  Excitation energy:                                               0.251300 eV
  Excitation energy:                                               3.906304 eV
  Excitation energy:                                               3.584737 eV
  Excitation energy:                                               3.482496 eV
  Excitation energy:                                               2.814383 eV
  Excitation energy:                                               2.439227 eV
  Excitation energy:                                               2.114709 eV
  Excitation energy:                                               1.091977 eV
  Excitation energy:                                               0.474593 eV
  Excitation energy:                                               0.223293 eV

                    Orbital Energies (a.u.)
 --------------------------------------------------------------

 Alpha MOs
 -- Occupied --
-11.2352 -11.2335  -1.0323  -0.7892  -0.6414  -0.5812  -0.5047  -0.3740

          Ground-State Mulliken Net Atomic Charges

     Atom                 Charge (a.u.)
  ----------------------------------------
      1 H                     0.047917
      2 C                    -0.095173
      3 H                     0.047552
      4 C                    -0.096362
      5 H                     0.047686
      6 H                     0.048381
  ----------------------------------------
  Sum of atomic charges =     0.000000

                    Cartesian Multipole Moments
 -----------------------------------------------------------------
    Charge (ESU x 10^10)
                 0.0000
    Dipole Moment (Debye)
         X       0.0010      Y      -0.0001      Z       0.0016
       Tot       0.0019
    Quadrupole Moments (Debye-Ang)
        XX     -12.2366     XY      -0.0382     YY     -12.2611
        XZ       0.1518     YZ       0.1948     ZZ     -15.5448

 Total job time:  73.12s(wall), 189.89s(cpu)
        *  Thank you very much for using Q-Chem.  Have a nice day.  *
