 Q-Chem 5.4 (devel), Q-Chem, Inc., Pleasanton, CA (2021)
 Q-Chem 5.4.1 for Intel X86 EM64T Linux

User input:
--------------------------------------------------------------
$comment
generated from CCJob.Templates
$end

$rem
sym_ignore = true
method = adc(2)
ee_states = 10
basis = cc-pVDZ
mem_static = 1024
mem_total = 40000
adc_davidson_maxiter = 900
adc_davidson_conv = 6
adc_print = 3
adc_prop_es = true
adc_prop_es2es = true
adc_prop_tpa = true
molden_format = True
state_analysis = true
print_orbitals = 15
gen_scfman = false
fde_export_density = true
fde_details = 3
$end

$molecule
0 1
H -0.0348278765 -0.2442097827 0.0636489606
C -1.0765972949 -0.5242748755 -0.0023551776
H -1.313264467 -1.5767591607 -0.0757276926
C -2.043634118 0.3926884087 0.0161254933
H -1.8137616575 1.4459188338 0.0804456828
H -3.085977293 0.114931858 -0.0593381042
$end
--------------------------------------------------------------

             Standard Nuclear Orientation (Angstroms)
    I     Atom           X                Y                Z
 ----------------------------------------------------------------
    1      H      -0.0348278765    -0.2442097827     0.0636489606
    2      C      -1.0765972949    -0.5242748755    -0.0023551776
    3      H      -1.3132644670    -1.5767591607    -0.0757276926
    4      C      -2.0436341180     0.3926884087     0.0161254933
    5      H      -1.8137616575     1.4459188338     0.0804456828
    6      H      -3.0859772930     0.1149318580    -0.0593381042
 ----------------------------------------------------------------

   11     -78.0399039410      3.60E-09 Convergence criterion met
 Total energy in the final basis set = -78.03990394
  Excited state 1 (singlet, A)                                     [converged]
  Term symbol:  2 (1) A                                     R^2 =  2.10472e-13
  Excitation energy:                                               8.735825 eV
  Excited state 2 (singlet, A)                                     [converged]
  Term symbol:  3 (1) A                                     R^2 =  7.58793e-14
  Excitation energy:                                               9.053687 eV
  Excited state 3 (singlet, A)                                     [converged]
  Term symbol:  4 (1) A                                     R^2 =  1.56393e-13
  Excitation energy:                                               9.170516 eV
  Excited state 4 (singlet, A)                                     [converged]
  Term symbol:  5 (1) A                                     R^2 =  1.55949e-13
  Excitation energy:                                               9.833317 eV
  Excited state 5 (singlet, A)                                     [converged]
  Term symbol:  6 (1) A                                     R^2 =  1.97314e-13
  Excitation energy:                                              10.211084 eV
  Excited state 6 (singlet, A)                                     [converged]
  Term symbol:  7 (1) A                                     R^2 =  4.67042e-13
  Excitation energy:                                              10.534646 eV
  Excited state 7 (singlet, A)                                     [converged]
  Term symbol:  8 (1) A                                     R^2 =  6.22631e-10
  Excitation energy:                                              11.557054 eV
  Excited state 8 (singlet, A)                                     [converged]
  Term symbol:  9 (1) A                                     R^2 =  2.22667e-09
  Excitation energy:                                              12.164450 eV
  Excited state 9 (singlet, A)                                     [converged]
  Term symbol:  10 (1) A                                    R^2 =  2.25158e-08
  Excitation energy:                                              12.416228 eV
  Excited state 10 (singlet, A)                                     [converged]
  Term symbol:  11 (1) A                                    R^2 =  4.96227e-07
  Excitation energy:                                              12.646176 eV
  Excitation energy:                                               0.317862 eV
  Excitation energy:                                               0.434691 eV
  Excitation energy:                                               0.116828 eV
  Excitation energy:                                               1.097493 eV
  Excitation energy:                                               0.779630 eV
  Excitation energy:                                               0.662802 eV
  Excitation energy:                                               1.475260 eV
  Excitation energy:                                               1.157397 eV
  Excitation energy:                                               1.040569 eV
  Excitation energy:                                               0.377767 eV
  Excitation energy:                                               1.798822 eV
  Excitation energy:                                               1.480959 eV
  Excitation energy:                                               1.364131 eV
  Excitation energy:                                               0.701329 eV
  Excitation energy:                                               0.323562 eV
  Excitation energy:                                               2.821229 eV
  Excitation energy:                                               2.503367 eV
  Excitation energy:                                               2.386539 eV
  Excitation energy:                                               1.723737 eV
  Excitation energy:                                               1.345970 eV
  Excitation energy:                                               1.022408 eV
  Excitation energy:                                               3.428625 eV
  Excitation energy:                                               3.110762 eV
  Excitation energy:                                               2.993934 eV
  Excitation energy:                                               2.331132 eV
  Excitation energy:                                               1.953365 eV
  Excitation energy:                                               1.629803 eV
  Excitation energy:                                               0.607395 eV
  Excitation energy:                                               3.680404 eV
  Excitation energy:                                               3.362541 eV
  Excitation energy:                                               3.245713 eV
  Excitation energy:                                               2.582911 eV
  Excitation energy:                                               2.205144 eV
  Excitation energy:                                               1.881582 eV
  Excitation energy:                                               0.859174 eV
  Excitation energy:                                               0.251779 eV
  Excitation energy:                                               3.910351 eV
  Excitation energy:                                               3.592488 eV
  Excitation energy:                                               3.475660 eV
  Excitation energy:                                               2.812858 eV
  Excitation energy:                                               2.435091 eV
  Excitation energy:                                               2.111529 eV
  Excitation energy:                                               1.089121 eV
  Excitation energy:                                               0.481726 eV
  Excitation energy:                                               0.229947 eV

                    Orbital Energies (a.u.)
 --------------------------------------------------------------

 Alpha MOs
 -- Occupied --
-11.2351 -11.2335  -1.0323  -0.7898  -0.6411  -0.5819  -0.5046  -0.3740

          Ground-State Mulliken Net Atomic Charges

     Atom                 Charge (a.u.)
  ----------------------------------------
      1 H                     0.048098
      2 C                    -0.095131
      3 H                     0.047708
      4 C                    -0.095567
      5 H                     0.047102
      6 H                     0.047789
  ----------------------------------------
  Sum of atomic charges =     0.000000

                    Cartesian Multipole Moments
 -----------------------------------------------------------------
    Charge (ESU x 10^10)
                 0.0000
    Dipole Moment (Debye)
         X      -0.0006      Y       0.0026      Z      -0.0127
       Tot       0.0130
    Quadrupole Moments (Debye-Ang)
        XX     -12.2212     XY      -0.0603     YY     -12.2644
        XZ       0.1803     YZ       0.1886     ZZ     -15.5416

 Total job time:  111.48s(wall), 339.44s(cpu)
        *  Thank you very much for using Q-Chem.  Have a nice day.  *
