 Q-Chem 5.4 (devel), Q-Chem, Inc., Pleasanton, CA (2021)
 Q-Chem 5.4.1 for Intel X86 EM64T Linux

User input:
--------------------------------------------------------------
$comment
generated from CCJob.Templates
$end

$rem
sym_ignore = true
method = adc(2)
ee_states = 10
basis = cc-pVDZ
mem_static = 1024
mem_total = 40000
adc_davidson_maxiter = 900
adc_davidson_conv = 6
adc_print = 3
adc_prop_es = true
adc_prop_es2es = true
adc_prop_tpa = true
molden_format = True
state_analysis = true
print_orbitals = 15
gen_scfman = false
fde_export_density = true
fde_details = 3
$end

$molecule
0 1
H -0.013813574450652313 -0.2517700266123989 0.0600193045408981
C -1.0477906623234092 -0.5599569805817536 0.0043328205951493545
H -1.2876645386879906 -1.6048299539519684 -0.06888649719072312
C -2.029911878593284 0.342216790727227 0.01402236100164596
H -1.8220138479751908 1.449005119297657 0.07720196329839699
H -3.095835474312446 0.09594519235819446 -0.051605266633248
$end
--------------------------------------------------------------

             Standard Nuclear Orientation (Angstroms)
    I     Atom           X                Y                Z
 ----------------------------------------------------------------
    1      H      -0.0138135745    -0.2517700266     0.0600193045
    2      C      -1.0477906623    -0.5599569806     0.0043328206
    3      H      -1.2876645387    -1.6048299540    -0.0688864972
    4      C      -2.0299118786     0.3422167907     0.0140223610
    5      H      -1.8220138480     1.4490051193     0.0772019633
    6      H      -3.0958354743     0.0959451924    -0.0516052666
 ----------------------------------------------------------------

   11     -78.0380719320      5.76E-09 Convergence criterion met
 Total energy in the final basis set = -78.03807193
  Excited state 1 (singlet, A)                                     [converged]
  Term symbol:  2 (1) A                                     R^2 =  2.87769e-13
  Excitation energy:                                               8.730763 eV
  Excited state 2 (singlet, A)                                     [converged]
  Term symbol:  3 (1) A                                     R^2 =  2.78092e-13
  Excitation energy:                                               8.923595 eV
  Excited state 3 (singlet, A)                                     [converged]
  Term symbol:  4 (1) A                                     R^2 =  3.07022e-13
  Excitation energy:                                               9.132394 eV
  Excited state 4 (singlet, A)                                     [converged]
  Term symbol:  5 (1) A                                     R^2 =  3.58844e-13
  Excitation energy:                                               9.738218 eV
  Excited state 5 (singlet, A)                                     [converged]
  Term symbol:  6 (1) A                                     R^2 =  4.86717e-13
  Excitation energy:                                              10.156548 eV
  Excited state 6 (singlet, A)                                     [converged]
  Term symbol:  7 (1) A                                     R^2 =  4.61593e-13
  Excitation energy:                                              10.519784 eV
  Excited state 7 (singlet, A)                                     [converged]
  Term symbol:  8 (1) A                                     R^2 =  6.99529e-11
  Excitation energy:                                              11.398100 eV
  Excited state 8 (singlet, A)                                     [converged]
  Term symbol:  9 (1) A                                     R^2 =  6.57114e-10
  Excitation energy:                                              12.075716 eV
  Excited state 9 (singlet, A)                                     [converged]
  Term symbol:  10 (1) A                                    R^2 =  1.73235e-08
  Excitation energy:                                              12.342862 eV
  Excited state 10 (singlet, A)                                     [converged]
  Term symbol:  11 (1) A                                    R^2 =  7.69928e-07
  Excitation energy:                                              12.455609 eV
  Excitation energy:                                               0.192832 eV
  Excitation energy:                                               0.401631 eV
  Excitation energy:                                               0.208799 eV
  Excitation energy:                                               1.007454 eV
  Excitation energy:                                               0.814622 eV
  Excitation energy:                                               0.605824 eV
  Excitation energy:                                               1.425784 eV
  Excitation energy:                                               1.232952 eV
  Excitation energy:                                               1.024154 eV
  Excitation energy:                                               0.418330 eV
  Excitation energy:                                               1.789021 eV
  Excitation energy:                                               1.596189 eV
  Excitation energy:                                               1.387390 eV
  Excitation energy:                                               0.781567 eV
  Excitation energy:                                               0.363237 eV
  Excitation energy:                                               2.667337 eV
  Excitation energy:                                               2.474505 eV
  Excitation energy:                                               2.265706 eV
  Excitation energy:                                               1.659883 eV
  Excitation energy:                                               1.241552 eV
  Excitation energy:                                               0.878316 eV
  Excitation energy:                                               3.344952 eV
  Excitation energy:                                               3.152120 eV
  Excitation energy:                                               2.943322 eV
  Excitation energy:                                               2.337498 eV
  Excitation energy:                                               1.919168 eV
  Excitation energy:                                               1.555931 eV
  Excitation energy:                                               0.677615 eV
  Excitation energy:                                               3.612099 eV
  Excitation energy:                                               3.419267 eV
  Excitation energy:                                               3.210468 eV
  Excitation energy:                                               2.604644 eV
  Excitation energy:                                               2.186314 eV
  Excitation energy:                                               1.823078 eV
  Excitation energy:                                               0.944762 eV
  Excitation energy:                                               0.267147 eV
  Excitation energy:                                               3.724846 eV
  Excitation energy:                                               3.532014 eV
  Excitation energy:                                               3.323215 eV
  Excitation energy:                                               2.717391 eV
  Excitation energy:                                               2.299061 eV
  Excitation energy:                                               1.935825 eV
  Excitation energy:                                               1.057509 eV
  Excitation energy:                                               0.379893 eV
  Excitation energy:                                               0.112747 eV

                    Orbital Energies (a.u.)
 --------------------------------------------------------------

 Alpha MOs
 -- Occupied --
-11.2414 -11.2350  -1.0302  -0.7858  -0.6361  -0.5823  -0.4982  -0.3745

          Ground-State Mulliken Net Atomic Charges

     Atom                 Charge (a.u.)
  ----------------------------------------
      1 H                     0.051030
      2 C                    -0.077532
      3 H                     0.048221
      4 C                    -0.130684
      5 H                     0.055841
      6 H                     0.053125
  ----------------------------------------
  Sum of atomic charges =     0.000000

                    Cartesian Multipole Moments
 -----------------------------------------------------------------
    Charge (ESU x 10^10)
                 0.0000
    Dipole Moment (Debye)
         X      -0.0123      Y      -0.0106      Z      -0.0179
       Tot       0.0242
    Quadrupole Moments (Debye-Ang)
        XX     -12.1354     XY      -0.0814     YY     -12.3368
        XZ       0.1698     YZ       0.1784     ZZ     -15.6161

 Total job time:  204.21s(wall), 467.94s(cpu)
        *  Thank you very much for using Q-Chem.  Have a nice day.  *
