 Q-Chem 5.4 (devel), Q-Chem, Inc., Pleasanton, CA (2021)
 Q-Chem 5.4.1 for Intel X86 EM64T Linux

User input:
--------------------------------------------------------------
$comment
generated from CCJob.Templates
$end

$rem
sym_ignore = true
method = adc(2)
ee_states = 10
basis = cc-pVDZ
mem_static = 1024
mem_total = 40000
adc_davidson_maxiter = 900
adc_davidson_conv = 6
adc_print = 3
adc_prop_es = true
adc_prop_es2es = true
adc_prop_tpa = true
molden_format = True
state_analysis = true
print_orbitals = 15
gen_scfman = false
fde_export_density = true
fde_details = 3
$end

$molecule
0 1
H -0.0348278765 -0.2442097827 0.0636489606
C -1.0765972949 -0.5242748755 -0.0023551776
H -1.313264467 -1.5767591607 -0.0757276926
C -2.043634118 0.3926884087 0.0461254933
H -1.8137616575 1.4459188338 0.0804456828
H -3.085977293 0.114931858 -0.0593381042
$end
--------------------------------------------------------------

             Standard Nuclear Orientation (Angstroms)
    I     Atom           X                Y                Z
 ----------------------------------------------------------------
    1      H      -0.0348278765    -0.2442097827     0.0636489606
    2      C      -1.0765972949    -0.5242748755    -0.0023551776
    3      H      -1.3132644670    -1.5767591607    -0.0757276926
    4      C      -2.0436341180     0.3926884087     0.0461254933
    5      H      -1.8137616575     1.4459188338     0.0804456828
    6      H      -3.0859772930     0.1149318580    -0.0593381042
 ----------------------------------------------------------------

   11     -78.0395328606      6.82E-09 Convergence criterion met
 Total energy in the final basis set = -78.03953286
  Excited state 1 (singlet, A)                                     [converged]
  Term symbol:  2 (1) A                                     R^2 =  7.63695e-13
  Excitation energy:                                               8.722315 eV
  Excited state 2 (singlet, A)                                     [converged]
  Term symbol:  3 (1) A                                     R^2 =  6.51821e-13
  Excitation energy:                                               9.038639 eV
  Excited state 3 (singlet, A)                                     [converged]
  Term symbol:  4 (1) A                                     R^2 =  7.90025e-13
  Excitation energy:                                               9.170231 eV
  Excited state 4 (singlet, A)                                     [converged]
  Term symbol:  5 (1) A                                     R^2 =  6.52004e-13
  Excitation energy:                                               9.832626 eV
  Excited state 5 (singlet, A)                                     [converged]
  Term symbol:  6 (1) A                                     R^2 =  2.73038e-11
  Excitation energy:                                              10.200851 eV
  Excited state 6 (singlet, A)                                     [converged]
  Term symbol:  7 (1) A                                     R^2 =  1.08320e-10
  Excitation energy:                                              10.523999 eV
  Excited state 7 (singlet, A)                                     [converged]
  Term symbol:  8 (1) A                                     R^2 =  2.78093e-08
  Excitation energy:                                              11.552896 eV
  Excited state 8 (singlet, A)                                     [converged]
  Term symbol:  9 (1) A                                     R^2 =  9.51710e-08
  Excitation energy:                                              12.152968 eV
  Excited state 9 (singlet, A)                                     [converged]
  Term symbol:  10 (1) A                                    R^2 =  5.96500e-07
  Excitation energy:                                              12.405829 eV
  Excited state 10 (singlet, A)                                     [converged]
  Term symbol:  11 (1) A                                    R^2 =  4.15006e-07
  Excitation energy:                                              12.643570 eV
  Excitation energy:                                               0.316323 eV
  Excitation energy:                                               0.447916 eV
  Excitation energy:                                               0.131593 eV
  Excitation energy:                                               1.110311 eV
  Excitation energy:                                               0.793988 eV
  Excitation energy:                                               0.662395 eV
  Excitation energy:                                               1.478536 eV
  Excitation energy:                                               1.162213 eV
  Excitation energy:                                               1.030620 eV
  Excitation energy:                                               0.368225 eV
  Excitation energy:                                               1.801683 eV
  Excitation energy:                                               1.485360 eV
  Excitation energy:                                               1.353767 eV
  Excitation energy:                                               0.691372 eV
  Excitation energy:                                               0.323147 eV
  Excitation energy:                                               2.830580 eV
  Excitation energy:                                               2.514257 eV
  Excitation energy:                                               2.382664 eV
  Excitation energy:                                               1.720269 eV
  Excitation energy:                                               1.352044 eV
  Excitation energy:                                               1.028897 eV
  Excitation energy:                                               3.430653 eV
  Excitation energy:                                               3.114329 eV
  Excitation energy:                                               2.982737 eV
  Excitation energy:                                               2.320342 eV
  Excitation energy:                                               1.952117 eV
  Excitation energy:                                               1.628969 eV
  Excitation energy:                                               0.600072 eV
  Excitation energy:                                               3.683513 eV
  Excitation energy:                                               3.367190 eV
  Excitation energy:                                               3.235597 eV
  Excitation energy:                                               2.573202 eV
  Excitation energy:                                               2.204977 eV
  Excitation energy:                                               1.881830 eV
  Excitation energy:                                               0.852933 eV
  Excitation energy:                                               0.252861 eV
  Excitation energy:                                               3.921255 eV
  Excitation energy:                                               3.604932 eV
  Excitation energy:                                               3.473339 eV
  Excitation energy:                                               2.810944 eV
  Excitation energy:                                               2.442719 eV
  Excitation energy:                                               2.119572 eV
  Excitation energy:                                               1.090675 eV
  Excitation energy:                                               0.490602 eV
  Excitation energy:                                               0.237742 eV

                    Orbital Energies (a.u.)
 --------------------------------------------------------------

 Alpha MOs
 -- Occupied --
-11.2353 -11.2337  -1.0321  -0.7898  -0.6410  -0.5816  -0.5045  -0.3739

          Ground-State Mulliken Net Atomic Charges

     Atom                 Charge (a.u.)
  ----------------------------------------
      1 H                     0.048150
      2 C                    -0.094722
      3 H                     0.047975
      4 C                    -0.096904
      5 H                     0.047092
      6 H                     0.048408
  ----------------------------------------
  Sum of atomic charges =     0.000000

                    Cartesian Multipole Moments
 -----------------------------------------------------------------
    Charge (ESU x 10^10)
                 0.0000
    Dipole Moment (Debye)
         X       0.0063      Y       0.0023      Z      -0.0546
       Tot       0.0550
    Quadrupole Moments (Debye-Ang)
        XX     -12.2594     XY      -0.0603     YY     -12.2567
        XZ       0.2637     YZ       0.1743     ZZ     -15.5451

 Total job time:  79.24s(wall), 265.83s(cpu)
        *  Thank you very much for using Q-Chem.  Have a nice day.  *
