 Q-Chem 5.4 (devel), Q-Chem, Inc., Pleasanton, CA (2021)
 Q-Chem 5.4.1 for Intel X86 EM64T Linux

User input:
--------------------------------------------------------------
$comment
generated from CCJob.Templates
$end

$rem
sym_ignore = true
method = adc(2)
ee_states = 10
basis = cc-pVDZ
mem_static = 1024
mem_total = 40000
adc_davidson_maxiter = 900
adc_davidson_conv = 6
adc_print = 3
adc_prop_es = true
adc_prop_es2es = true
adc_prop_tpa = true
molden_format = True
state_analysis = true
print_orbitals = 15
gen_scfman = false
fde_export_density = true
fde_details = 3
$end

$molecule
0 1
H -0.02196679961192225 -0.2461771658772978 0.06535290530641738
C -1.0787505788238314 -0.52379054728216 -0.002365184400061448
H -1.300789876688289 -1.5929715521980032 -0.07805469451018707
C -2.047517292878303 0.39244619836034056 0.007134439914892873
H -1.8229627319413098 1.4621848132916793 0.0824328040144851
H -3.101757047117677 0.11538969537097354 -0.06087606000211921
$end
--------------------------------------------------------------

             Standard Nuclear Orientation (Angstroms)
    I     Atom           X                Y                Z
 ----------------------------------------------------------------
    1      H      -0.0219667996    -0.2461771659     0.0653529053
    2      C      -1.0787505788    -0.5237905473    -0.0023651844
    3      H      -1.3007898767    -1.5929715522    -0.0780546945
    4      C      -2.0475172929     0.3924461984     0.0071344399
    5      H      -1.8229627319     1.4621848133     0.0824328040
    6      H      -3.1017570471     0.1153896954    -0.0608760600
 ----------------------------------------------------------------

   11     -78.0396464024      3.45E-09 Convergence criterion met
 Total energy in the final basis set = -78.03964640
  Excited state 1 (singlet, A)                                     [converged]
  Term symbol:  2 (1) A                                     R^2 =  6.45129e-14
  Excitation energy:                                               8.731789 eV
  Excited state 2 (singlet, A)                                     [converged]
  Term symbol:  3 (1) A                                     R^2 =  2.04577e-13
  Excitation energy:                                               8.952314 eV
  Excited state 3 (singlet, A)                                     [converged]
  Term symbol:  4 (1) A                                     R^2 =  2.29851e-13
  Excitation energy:                                               9.141606 eV
  Excited state 4 (singlet, A)                                     [converged]
  Term symbol:  5 (1) A                                     R^2 =  2.27406e-13
  Excitation energy:                                               9.738268 eV
  Excited state 5 (singlet, A)                                     [converged]
  Term symbol:  6 (1) A                                     R^2 =  1.53674e-13
  Excitation energy:                                              10.158489 eV
  Excited state 6 (singlet, A)                                     [converged]
  Term symbol:  7 (1) A                                     R^2 =  6.90382e-13
  Excitation energy:                                              10.520898 eV
  Excited state 7 (singlet, A)                                     [converged]
  Term symbol:  8 (1) A                                     R^2 =  1.94513e-11
  Excitation energy:                                              11.433737 eV
  Excited state 8 (singlet, A)                                     [converged]
  Term symbol:  9 (1) A                                     R^2 =  7.05363e-10
  Excitation energy:                                              12.068247 eV
  Excited state 9 (singlet, A)                                     [converged]
  Term symbol:  10 (1) A                                    R^2 =  1.68177e-08
  Excitation energy:                                              12.346787 eV
  Excited state 10 (singlet, A)                                     [converged]
  Term symbol:  11 (1) A                                    R^2 =  8.90958e-07
  Excitation energy:                                              12.476705 eV
  Excitation energy:                                               0.220525 eV
  Excitation energy:                                               0.409817 eV
  Excitation energy:                                               0.189292 eV
  Excitation energy:                                               1.006479 eV
  Excitation energy:                                               0.785954 eV
  Excitation energy:                                               0.596662 eV
  Excitation energy:                                               1.426700 eV
  Excitation energy:                                               1.206175 eV
  Excitation energy:                                               1.016883 eV
  Excitation energy:                                               0.420221 eV
  Excitation energy:                                               1.789109 eV
  Excitation energy:                                               1.568584 eV
  Excitation energy:                                               1.379292 eV
  Excitation energy:                                               0.782630 eV
  Excitation energy:                                               0.362409 eV
  Excitation energy:                                               2.701948 eV
  Excitation energy:                                               2.481423 eV
  Excitation energy:                                               2.292132 eV
  Excitation energy:                                               1.695469 eV
  Excitation energy:                                               1.275249 eV
  Excitation energy:                                               0.912840 eV
  Excitation energy:                                               3.336459 eV
  Excitation energy:                                               3.115933 eV
  Excitation energy:                                               2.926642 eV
  Excitation energy:                                               2.329980 eV
  Excitation energy:                                               1.909759 eV
  Excitation energy:                                               1.547350 eV
  Excitation energy:                                               0.634510 eV
  Excitation energy:                                               3.614998 eV
  Excitation energy:                                               3.394473 eV
  Excitation energy:                                               3.205182 eV
  Excitation energy:                                               2.608519 eV
  Excitation energy:                                               2.188299 eV
  Excitation energy:                                               1.825890 eV
  Excitation energy:                                               0.913050 eV
  Excitation energy:                                               0.278540 eV
  Excitation energy:                                               3.744916 eV
  Excitation energy:                                               3.524391 eV
  Excitation energy:                                               3.335099 eV
  Excitation energy:                                               2.738437 eV
  Excitation energy:                                               2.318216 eV
  Excitation energy:                                               1.955807 eV
  Excitation energy:                                               1.042968 eV
  Excitation energy:                                               0.408458 eV
  Excitation energy:                                               0.129918 eV

                    Orbital Energies (a.u.)
 --------------------------------------------------------------

 Alpha MOs
 -- Occupied --
-11.2388 -11.2372  -1.0299  -0.7859  -0.6350  -0.5823  -0.4995  -0.3744

          Ground-State Mulliken Net Atomic Charges

     Atom                 Charge (a.u.)
  ----------------------------------------
      1 H                     0.052550
      2 C                    -0.105348
      3 H                     0.052320
      4 C                    -0.104144
      5 H                     0.052553
      6 H                     0.052069
  ----------------------------------------
  Sum of atomic charges =     0.000000

                    Cartesian Multipole Moments
 -----------------------------------------------------------------
    Charge (ESU x 10^10)
                -0.0000
    Dipole Moment (Debye)
         X      -0.0008      Y      -0.0010      Z      -0.0008
       Tot       0.0015
    Quadrupole Moments (Debye-Ang)
        XX     -12.2339     XY      -0.1032     YY     -12.2685
        XZ       0.1584     YZ       0.1989     ZZ     -15.6096

 Total job time:  153.84s(wall), 454.21s(cpu)
        *  Thank you very much for using Q-Chem.  Have a nice day.  *
