 Q-Chem 5.4 (devel), Q-Chem, Inc., Pleasanton, CA (2021)
 Q-Chem 5.4.1 for Intel X86 EM64T Linux

User input:
--------------------------------------------------------------
$comment
generated from CCJob.Templates
$end

$rem
sym_ignore = true
method = adc(2)
ee_states = 10
basis = cc-pVDZ
mem_static = 1024
mem_total = 40000
adc_davidson_maxiter = 900
adc_davidson_conv = 6
adc_print = 3
adc_prop_es = true
adc_prop_es2es = true
adc_prop_tpa = true
molden_format = True
state_analysis = true
print_orbitals = 15
gen_scfman = false
fde_export_density = true
fde_details = 3
$end

$molecule
0 1
H -0.0348278765 -0.2442097827 0.0636489606
C -1.0765972949 -0.5242748755 -0.0023551776
H -1.313264467 -1.5767591607 -0.0757276926
C -2.043634118 0.3926884087 0.0061254933
H -1.8137616575 1.4059188338 0.0804456828
H -3.085977293 0.114931858 -0.0593381042
$end
--------------------------------------------------------------

             Standard Nuclear Orientation (Angstroms)
    I     Atom           X                Y                Z
 ----------------------------------------------------------------
    1      H      -0.0348278765    -0.2442097827     0.0636489606
    2      C      -1.0765972949    -0.5242748755    -0.0023551776
    3      H      -1.3132644670    -1.5767591607    -0.0757276926
    4      C      -2.0436341180     0.3926884087     0.0061254933
    5      H      -1.8137616575     1.4059188338     0.0804456828
    6      H      -3.0859772930     0.1149318580    -0.0593381042
 ----------------------------------------------------------------

   11     -78.0385510723      6.23E-09 Convergence criterion met
 Total energy in the final basis set = -78.03855107
  Excited state 1 (singlet, A)                                     [converged]
  Term symbol:  2 (1) A                                     R^2 =  1.51879e-13
  Excitation energy:                                               8.735359 eV
  Excited state 2 (singlet, A)                                     [converged]
  Term symbol:  3 (1) A                                     R^2 =  3.12139e-13
  Excitation energy:                                               9.109401 eV
  Excited state 3 (singlet, A)                                     [converged]
  Term symbol:  4 (1) A                                     R^2 =  3.32695e-13
  Excitation energy:                                               9.198072 eV
  Excited state 4 (singlet, A)                                     [converged]
  Term symbol:  5 (1) A                                     R^2 =  2.62588e-13
  Excitation energy:                                               9.888964 eV
  Excited state 5 (singlet, A)                                     [converged]
  Term symbol:  6 (1) A                                     R^2 =  3.06323e-13
  Excitation energy:                                              10.246654 eV
  Excited state 6 (singlet, A)                                     [converged]
  Term symbol:  7 (1) A                                     R^2 =  3.42893e-13
  Excitation energy:                                              10.562018 eV
  Excited state 7 (singlet, A)                                     [converged]
  Term symbol:  8 (1) A                                     R^2 =  7.29434e-10
  Excitation energy:                                              11.641631 eV
  Excited state 8 (singlet, A)                                     [converged]
  Term symbol:  9 (1) A                                     R^2 =  3.97602e-10
  Excitation energy:                                              12.210791 eV
  Excited state 9 (singlet, A)                                     [converged]
  Term symbol:  10 (1) A                                    R^2 =  2.53240e-09
  Excitation energy:                                              12.460686 eV
  Excited state 10 (singlet, A)                                     [converged]
  Term symbol:  11 (1) A                                    R^2 =  8.33675e-07
  Excitation energy:                                              12.743418 eV
  Excitation energy:                                               0.374042 eV
  Excitation energy:                                               0.462713 eV
  Excitation energy:                                               0.088671 eV
  Excitation energy:                                               1.153604 eV
  Excitation energy:                                               0.779563 eV
  Excitation energy:                                               0.690891 eV
  Excitation energy:                                               1.511295 eV
  Excitation energy:                                               1.137253 eV
  Excitation energy:                                               1.048582 eV
  Excitation energy:                                               0.357690 eV
  Excitation energy:                                               1.826659 eV
  Excitation energy:                                               1.452617 eV
  Excitation energy:                                               1.363946 eV
  Excitation energy:                                               0.673054 eV
  Excitation energy:                                               0.315364 eV
  Excitation energy:                                               2.906272 eV
  Excitation energy:                                               2.532230 eV
  Excitation energy:                                               2.443559 eV
  Excitation energy:                                               1.752668 eV
  Excitation energy:                                               1.394977 eV
  Excitation energy:                                               1.079613 eV
  Excitation energy:                                               3.475431 eV
  Excitation energy:                                               3.101390 eV
  Excitation energy:                                               3.012718 eV
  Excitation energy:                                               2.321827 eV
  Excitation energy:                                               1.964137 eV
  Excitation energy:                                               1.648773 eV
  Excitation energy:                                               0.569159 eV
  Excitation energy:                                               3.725327 eV
  Excitation energy:                                               3.351285 eV
  Excitation energy:                                               3.262614 eV
  Excitation energy:                                               2.571723 eV
  Excitation energy:                                               2.214032 eV
  Excitation energy:                                               1.898668 eV
  Excitation energy:                                               0.819055 eV
  Excitation energy:                                               0.249896 eV
  Excitation energy:                                               4.008059 eV
  Excitation energy:                                               3.634017 eV
  Excitation energy:                                               3.545346 eV
  Excitation energy:                                               2.854455 eV
  Excitation energy:                                               2.496764 eV
  Excitation energy:                                               2.181400 eV
  Excitation energy:                                               1.101787 eV
  Excitation energy:                                               0.532627 eV
  Excitation energy:                                               0.282732 eV

                    Orbital Energies (a.u.)
 --------------------------------------------------------------

 Alpha MOs
 -- Occupied --
-11.2340 -11.2297  -1.0339  -0.7936  -0.6448  -0.5825  -0.5078  -0.3737

          Ground-State Mulliken Net Atomic Charges

     Atom                 Charge (a.u.)
  ----------------------------------------
      1 H                     0.047575
      2 C                    -0.101661
      3 H                     0.046960
      4 C                    -0.074014
      5 H                     0.034755
      6 H                     0.046384
  ----------------------------------------
  Sum of atomic charges =     0.000000

                    Cartesian Multipole Moments
 -----------------------------------------------------------------
    Charge (ESU x 10^10)
                -0.0000
    Dipole Moment (Debye)
         X       0.0005      Y       0.0179      Z       0.0040
       Tot       0.0183
    Quadrupole Moments (Debye-Ang)
        XX     -12.1982     XY      -0.0817     YY     -12.2672
        XZ       0.1471     YZ       0.1935     ZZ     -15.4917

 Total job time:  74.31s(wall), 235.45s(cpu)
        *  Thank you very much for using Q-Chem.  Have a nice day.  *
