 Q-Chem 5.4 (devel), Q-Chem, Inc., Pleasanton, CA (2021)
 Q-Chem 5.4.1 for Intel X86 EM64T Linux

User input:
--------------------------------------------------------------
$comment
generated from CCJob.Templates
$end

$rem
sym_ignore = true
method = adc(2)
ee_states = 10
basis = cc-pVDZ
mem_static = 1024
mem_total = 30000
adc_davidson_maxiter = 900
adc_davidson_conv = 6
adc_print = 3
adc_prop_es = true
adc_prop_es2es = true
adc_prop_tpa = true
molden_format = True
state_analysis = true
print_orbitals = 15
gen_scfman = false
fde_export_density = true
fde_details = 3
$end

$molecule
0 1
H -0.0348278765 -0.2442097827 0.0636489606
C -1.0765972949 -0.5242748755 0.0026448224
H -1.313264467 -1.5767591607 -0.0757276926
C -2.043634118 0.3926884087 0.0061254933
H -1.8137616575 1.4459188338 0.0804456828
H -3.085977293 0.114931858 -0.0593381042
$end
--------------------------------------------------------------

             Standard Nuclear Orientation (Angstroms)
    I     Atom           X                Y                Z
 ----------------------------------------------------------------
    1      H      -0.0348278765    -0.2442097827     0.0636489606
    2      C      -1.0765972949    -0.5242748755     0.0026448224
    3      H      -1.3132644670    -1.5767591607    -0.0757276926
    4      C      -2.0436341180     0.3926884087     0.0061254933
    5      H      -1.8137616575     1.4459188338     0.0804456828
    6      H      -3.0859772930     0.1149318580    -0.0593381042
 ----------------------------------------------------------------

   11     -78.0399209975      2.91E-09 Convergence criterion met
 Total energy in the final basis set = -78.03992100
  Excited state 1 (singlet, A)                                     [converged]
  Term symbol:  2 (1) A                                     R^2 =  1.50062e-13
  Excitation energy:                                               8.737217 eV
  Excited state 2 (singlet, A)                                     [converged]
  Term symbol:  3 (1) A                                     R^2 =  3.87232e-14
  Excitation energy:                                               9.054075 eV
  Excited state 3 (singlet, A)                                     [converged]
  Term symbol:  4 (1) A                                     R^2 =  8.16905e-14
  Excitation energy:                                               9.170909 eV
  Excited state 4 (singlet, A)                                     [converged]
  Term symbol:  5 (1) A                                     R^2 =  4.41592e-14
  Excitation energy:                                               9.833375 eV
  Excited state 5 (singlet, A)                                     [converged]
  Term symbol:  6 (1) A                                     R^2 =  1.18505e-13
  Excitation energy:                                              10.212250 eV
  Excited state 6 (singlet, A)                                     [converged]
  Term symbol:  7 (1) A                                     R^2 =  2.64256e-13
  Excitation energy:                                              10.535935 eV
  Excited state 7 (singlet, A)                                     [converged]
  Term symbol:  8 (1) A                                     R^2 =  4.96740e-10
  Excitation energy:                                              11.556540 eV
  Excited state 8 (singlet, A)                                     [converged]
  Term symbol:  9 (1) A                                     R^2 =  1.14049e-09
  Excitation energy:                                              12.165383 eV
  Excited state 9 (singlet, A)                                     [converged]
  Term symbol:  10 (1) A                                    R^2 =  1.35318e-08
  Excitation energy:                                              12.417136 eV
  Excited state 10 (singlet, A)                                     [converged]
  Term symbol:  11 (1) A                                    R^2 =  7.25246e-07
  Excitation energy:                                              12.645353 eV
  Excitation energy:                                               0.316858 eV
  Excitation energy:                                               0.433692 eV
  Excitation energy:                                               0.116833 eV
  Excitation energy:                                               1.096158 eV
  Excitation energy:                                               0.779300 eV
  Excitation energy:                                               0.662466 eV
  Excitation energy:                                               1.475033 eV
  Excitation energy:                                               1.158175 eV
  Excitation energy:                                               1.041341 eV
  Excitation energy:                                               0.378875 eV
  Excitation energy:                                               1.798718 eV
  Excitation energy:                                               1.481860 eV
  Excitation energy:                                               1.365026 eV
  Excitation energy:                                               0.702560 eV
  Excitation energy:                                               0.323685 eV
  Excitation energy:                                               2.819323 eV
  Excitation energy:                                               2.502465 eV
  Excitation energy:                                               2.385631 eV
  Excitation energy:                                               1.723165 eV
  Excitation energy:                                               1.344290 eV
  Excitation energy:                                               1.020605 eV
  Excitation energy:                                               3.428166 eV
  Excitation energy:                                               3.111308 eV
  Excitation energy:                                               2.994474 eV
  Excitation energy:                                               2.332008 eV
  Excitation energy:                                               1.953133 eV
  Excitation energy:                                               1.629448 eV
  Excitation energy:                                               0.608843 eV
  Excitation energy:                                               3.679919 eV
  Excitation energy:                                               3.363061 eV
  Excitation energy:                                               3.246227 eV
  Excitation energy:                                               2.583761 eV
  Excitation energy:                                               2.204886 eV
  Excitation energy:                                               1.881201 eV
  Excitation energy:                                               0.860596 eV
  Excitation energy:                                               0.251753 eV
  Excitation energy:                                               3.908136 eV
  Excitation energy:                                               3.591277 eV
  Excitation energy:                                               3.474444 eV
  Excitation energy:                                               2.811978 eV
  Excitation energy:                                               2.433103 eV
  Excitation energy:                                               2.109418 eV
  Excitation energy:                                               1.088812 eV
  Excitation energy:                                               0.479969 eV
  Excitation energy:                                               0.228217 eV

                    Orbital Energies (a.u.)
 --------------------------------------------------------------

 Alpha MOs
 -- Occupied --
-11.2351 -11.2334  -1.0323  -0.7898  -0.6411  -0.5819  -0.5046  -0.3740

          Ground-State Mulliken Net Atomic Charges

     Atom                 Charge (a.u.)
  ----------------------------------------
      1 H                     0.048073
      2 C                    -0.095166
      3 H                     0.047719
      4 C                    -0.095483
      5 H                     0.047175
      6 H                     0.047683
  ----------------------------------------
  Sum of atomic charges =     0.000000

                    Cartesian Multipole Moments
 -----------------------------------------------------------------
    Charge (ESU x 10^10)
                 0.0000
    Dipole Moment (Debye)
         X      -0.0014      Y       0.0023      Z      -0.0058
       Tot       0.0064
    Quadrupole Moments (Debye-Ang)
        XX     -12.2128     XY      -0.0595     YY     -12.2703
        XZ       0.1606     YZ       0.1966     ZZ     -15.5410

 Total job time:  65.01s(wall), 210.07s(cpu)
        *  Thank you very much for using Q-Chem.  Have a nice day.  *
