 Q-Chem 5.4 (devel), Q-Chem, Inc., Pleasanton, CA (2021)
 Q-Chem 5.4.1 for Intel X86 EM64T Linux

User input:
--------------------------------------------------------------
$comment
generated from CCJob.Templates
$end

$rem
sym_ignore = true
method = adc(2)
ee_states = 10
basis = cc-pVDZ
mem_static = 1024
mem_total = 40000
adc_davidson_maxiter = 900
adc_davidson_conv = 6
adc_print = 3
adc_prop_es = true
adc_prop_es2es = true
adc_prop_tpa = true
molden_format = True
state_analysis = true
print_orbitals = 15
gen_scfman = false
fde_export_density = true
fde_details = 3
$end

$molecule
0 1
H -0.0348278765 -0.2442097827 0.023648960599999998
C -1.0765972949 -0.5242748755 -0.0023551776
H -1.313264467 -1.5767591607 -0.0757276926
C -2.043634118 0.3926884087 0.0061254933
H -1.8137616575 1.4459188338 0.0804456828
H -3.085977293 0.114931858 -0.0593381042
$end
--------------------------------------------------------------

             Standard Nuclear Orientation (Angstroms)
    I     Atom           X                Y                Z
 ----------------------------------------------------------------
    1      H      -0.0348278765    -0.2442097827     0.0236489606
    2      C      -1.0765972949    -0.5242748755    -0.0023551776
    3      H      -1.3132644670    -1.5767591607    -0.0757276926
    4      C      -2.0436341180     0.3926884087     0.0061254933
    5      H      -1.8137616575     1.4459188338     0.0804456828
    6      H      -3.0859772930     0.1149318580    -0.0593381042
 ----------------------------------------------------------------

   11     -78.0398405657      3.84E-09 Convergence criterion met
 Total energy in the final basis set = -78.03984057
  Excited state 1 (singlet, A)                                     [converged]
  Term symbol:  2 (1) A                                     R^2 =  7.79149e-14
  Excitation energy:                                               8.726369 eV
  Excited state 2 (singlet, A)                                     [converged]
  Term symbol:  3 (1) A                                     R^2 =  4.68869e-14
  Excitation energy:                                               9.059427 eV
  Excited state 3 (singlet, A)                                     [converged]
  Term symbol:  4 (1) A                                     R^2 =  6.08255e-14
  Excitation energy:                                               9.172727 eV
  Excited state 4 (singlet, A)                                     [converged]
  Term symbol:  5 (1) A                                     R^2 =  5.52414e-14
  Excitation energy:                                               9.836747 eV
  Excited state 5 (singlet, A)                                     [converged]
  Term symbol:  6 (1) A                                     R^2 =  2.89354e-13
  Excitation energy:                                              10.213216 eV
  Excited state 6 (singlet, A)                                     [converged]
  Term symbol:  7 (1) A                                     R^2 =  6.26762e-13
  Excitation energy:                                              10.536401 eV
  Excited state 7 (singlet, A)                                     [converged]
  Term symbol:  8 (1) A                                     R^2 =  9.63237e-11
  Excitation energy:                                              11.561119 eV
  Excited state 8 (singlet, A)                                     [converged]
  Term symbol:  9 (1) A                                     R^2 =  1.38889e-09
  Excitation energy:                                              12.164005 eV
  Excited state 9 (singlet, A)                                     [converged]
  Term symbol:  10 (1) A                                    R^2 =  2.05568e-08
  Excitation energy:                                              12.415670 eV
  Excited state 10 (singlet, A)                                     [converged]
  Term symbol:  11 (1) A                                    R^2 =  9.56327e-07
  Excitation energy:                                              12.650243 eV
  Excitation energy:                                               0.333058 eV
  Excitation energy:                                               0.446358 eV
  Excitation energy:                                               0.113300 eV
  Excitation energy:                                               1.110377 eV
  Excitation energy:                                               0.777319 eV
  Excitation energy:                                               0.664020 eV
  Excitation energy:                                               1.486847 eV
  Excitation energy:                                               1.153789 eV
  Excitation energy:                                               1.040489 eV
  Excitation energy:                                               0.376470 eV
  Excitation energy:                                               1.810032 eV
  Excitation energy:                                               1.476974 eV
  Excitation energy:                                               1.363674 eV
  Excitation energy:                                               0.699655 eV
  Excitation energy:                                               0.323185 eV
  Excitation energy:                                               2.834750 eV
  Excitation energy:                                               2.501691 eV
  Excitation energy:                                               2.388392 eV
  Excitation energy:                                               1.724372 eV
  Excitation energy:                                               1.347902 eV
  Excitation energy:                                               1.024717 eV
  Excitation energy:                                               3.437636 eV
  Excitation energy:                                               3.104578 eV
  Excitation energy:                                               2.991278 eV
  Excitation energy:                                               2.327259 eV
  Excitation energy:                                               1.950789 eV
  Excitation energy:                                               1.627604 eV
  Excitation energy:                                               0.602886 eV
  Excitation energy:                                               3.689301 eV
  Excitation energy:                                               3.356243 eV
  Excitation energy:                                               3.242943 eV
  Excitation energy:                                               2.578924 eV
  Excitation energy:                                               2.202454 eV
  Excitation energy:                                               1.879269 eV
  Excitation energy:                                               0.854551 eV
  Excitation energy:                                               0.251665 eV
  Excitation energy:                                               3.923874 eV
  Excitation energy:                                               3.590815 eV
  Excitation energy:                                               3.477516 eV
  Excitation energy:                                               2.813496 eV
  Excitation energy:                                               2.437026 eV
  Excitation energy:                                               2.113841 eV
  Excitation energy:                                               1.089124 eV
  Excitation energy:                                               0.486238 eV
  Excitation energy:                                               0.234573 eV

                    Orbital Energies (a.u.)
 --------------------------------------------------------------

 Alpha MOs
 -- Occupied --
-11.2350 -11.2334  -1.0323  -0.7900  -0.6412  -0.5821  -0.5047  -0.3740

          Ground-State Mulliken Net Atomic Charges

     Atom                 Charge (a.u.)
  ----------------------------------------
      1 H                     0.047669
      2 C                    -0.094458
      3 H                     0.047503
      4 C                    -0.095636
      5 H                     0.047221
      6 H                     0.047701
  ----------------------------------------
  Sum of atomic charges =     0.000000

                    Cartesian Multipole Moments
 -----------------------------------------------------------------
    Charge (ESU x 10^10)
                 0.0000
    Dipole Moment (Debye)
         X      -0.0004      Y       0.0035      Z      -0.0268
       Tot       0.0270
    Quadrupole Moments (Debye-Ang)
        XX     -12.2124     XY      -0.0623     YY     -12.2693
        XZ       0.1450     YZ       0.1948     ZZ     -15.5418

 Total job time:  101.27s(wall), 300.96s(cpu)
        *  Thank you very much for using Q-Chem.  Have a nice day.  *
