 Q-Chem 5.4 (devel), Q-Chem, Inc., Pleasanton, CA (2021)
 Q-Chem 5.4.1 for Intel X86 EM64T Linux

User input:
--------------------------------------------------------------
$comment
generated from CCJob.Templates
$end

$rem
sym_ignore = true
method = adc(2)
ee_states = 10
basis = cc-pVDZ
mem_static = 1024
mem_total = 40000
adc_davidson_maxiter = 900
adc_davidson_conv = 6
adc_print = 3
adc_prop_es = true
adc_prop_es2es = true
adc_prop_tpa = true
molden_format = True
state_analysis = true
print_orbitals = 15
gen_scfman = false
fde_export_density = true
fde_details = 3
$end

$molecule
0 1
H -0.011105011658308715 -0.2207831360122811 0.06299434449498587
C -1.0308417690318579 -0.47795247775955835 -0.0019563002464684006
H -1.2749408507866422 -1.582384588177013 -0.07514241753607885
C -2.0354232372755985 0.40058688094577377 0.006274919773526684
H -1.8314229716428008 1.4672405630978658 0.07939004304396077
H -3.095229872871074 0.10563895133334535 -0.05864806718713413
$end
--------------------------------------------------------------

             Standard Nuclear Orientation (Angstroms)
    I     Atom           X                Y                Z
 ----------------------------------------------------------------
    1      H      -0.0111050117    -0.2207831360     0.0629943445
    2      C      -1.0308417690    -0.4779524778    -0.0019563002
    3      H      -1.2749408508    -1.5823845882    -0.0751424175
    4      C      -2.0354232373     0.4005868809     0.0062749198
    5      H      -1.8314229716     1.4672405631     0.0793900430
    6      H      -3.0952298729     0.1056389513    -0.0586480672
 ----------------------------------------------------------------

   11     -78.0370441516      6.58E-09 Convergence criterion met
 Total energy in the final basis set = -78.03704415
  Excited state 1 (singlet, A)                                     [converged]
  Term symbol:  2 (1) A                                     R^2 =  8.96770e-14
  Excitation energy:                                               8.722211 eV
  Excited state 2 (singlet, A)                                     [converged]
  Term symbol:  3 (1) A                                     R^2 =  4.97232e-13
  Excitation energy:                                               8.888786 eV
  Excited state 3 (singlet, A)                                     [converged]
  Term symbol:  4 (1) A                                     R^2 =  1.59230e-13
  Excitation energy:                                               9.106641 eV
  Excited state 4 (singlet, A)                                     [converged]
  Term symbol:  5 (1) A                                     R^2 =  4.64195e-14
  Excitation energy:                                               9.759031 eV
  Excited state 5 (singlet, A)                                     [converged]
  Term symbol:  6 (1) A                                     R^2 =  7.36293e-14
  Excitation energy:                                              10.166329 eV
  Excited state 6 (singlet, A)                                     [converged]
  Term symbol:  7 (1) A                                     R^2 =  1.65386e-13
  Excitation energy:                                              10.538793 eV
  Excited state 7 (singlet, A)                                     [converged]
  Term symbol:  8 (1) A                                     R^2 =  5.07428e-12
  Excitation energy:                                              11.376687 eV
  Excited state 8 (singlet, A)                                     [converged]
  Term symbol:  9 (1) A                                     R^2 =  2.30134e-11
  Excitation energy:                                              12.054240 eV
  Excited state 9 (singlet, A)                                     [converged]
  Term symbol:  10 (1) A                                    R^2 =  1.61797e-09
  Excitation energy:                                              12.329324 eV
  Excited state 10 (singlet, A)                                     [converged]
  Term symbol:  11 (1) A                                    R^2 =  4.45812e-07
  Excitation energy:                                              12.445253 eV
  Excitation energy:                                               0.166575 eV
  Excitation energy:                                               0.384430 eV
  Excitation energy:                                               0.217855 eV
  Excitation energy:                                               1.036820 eV
  Excitation energy:                                               0.870245 eV
  Excitation energy:                                               0.652390 eV
  Excitation energy:                                               1.444118 eV
  Excitation energy:                                               1.277543 eV
  Excitation energy:                                               1.059688 eV
  Excitation energy:                                               0.407298 eV
  Excitation energy:                                               1.816582 eV
  Excitation energy:                                               1.650006 eV
  Excitation energy:                                               1.432151 eV
  Excitation energy:                                               0.779762 eV
  Excitation energy:                                               0.372463 eV
  Excitation energy:                                               2.654476 eV
  Excitation energy:                                               2.487901 eV
  Excitation energy:                                               2.270046 eV
  Excitation energy:                                               1.617656 eV
  Excitation energy:                                               1.210358 eV
  Excitation energy:                                               0.837894 eV
  Excitation energy:                                               3.332028 eV
  Excitation energy:                                               3.165453 eV
  Excitation energy:                                               2.947598 eV
  Excitation energy:                                               2.295208 eV
  Excitation energy:                                               1.887910 eV
  Excitation energy:                                               1.515447 eV
  Excitation energy:                                               0.677553 eV
  Excitation energy:                                               3.607113 eV
  Excitation energy:                                               3.440537 eV
  Excitation energy:                                               3.222682 eV
  Excitation energy:                                               2.570293 eV
  Excitation energy:                                               2.162994 eV
  Excitation energy:                                               1.790531 eV
  Excitation energy:                                               0.952637 eV
  Excitation energy:                                               0.275084 eV
  Excitation energy:                                               3.723042 eV
  Excitation energy:                                               3.556467 eV
  Excitation energy:                                               3.338612 eV
  Excitation energy:                                               2.686222 eV
  Excitation energy:                                               2.278924 eV
  Excitation energy:                                               1.906461 eV
  Excitation energy:                                               1.068566 eV
  Excitation energy:                                               0.391014 eV
  Excitation energy:                                               0.115930 eV

                    Orbital Energies (a.u.)
 --------------------------------------------------------------

 Alpha MOs
 -- Occupied --
-11.2392 -11.2375  -1.0299  -0.7872  -0.6354  -0.5832  -0.4976  -0.3743

          Ground-State Mulliken Net Atomic Charges

     Atom                 Charge (a.u.)
  ----------------------------------------
      1 H                     0.044304
      2 C                    -0.100575
      3 H                     0.056182
      4 C                    -0.105616
      5 H                     0.049443
      6 H                     0.056263
  ----------------------------------------
  Sum of atomic charges =     0.000000

                    Cartesian Multipole Moments
 -----------------------------------------------------------------
    Charge (ESU x 10^10)
                 0.0000
    Dipole Moment (Debye)
         X       0.0171      Y       0.0304      Z       0.0082
       Tot       0.0358
    Quadrupole Moments (Debye-Ang)
        XX     -12.1234     XY      -0.1345     YY     -12.4470
        XZ       0.1463     YZ       0.1824     ZZ     -15.6155

 Total job time:  162.22s(wall), 490.52s(cpu)
        *  Thank you very much for using Q-Chem.  Have a nice day.  *
