 Q-Chem 5.4 (devel), Q-Chem, Inc., Pleasanton, CA (2021)
 Q-Chem 5.4.1 for Intel X86 EM64T Linux

User input:
--------------------------------------------------------------
$comment
generated from CCJob.Templates
$end

$rem
sym_ignore = true
method = adc(2)
ee_states = 10
basis = cc-pVDZ
mem_static = 1024
mem_total = 40000
adc_davidson_maxiter = 900
adc_davidson_conv = 6
adc_print = 3
adc_prop_es = true
adc_prop_es2es = true
adc_prop_tpa = true
molden_format = True
state_analysis = true
print_orbitals = 15
gen_scfman = false
fde_export_density = true
fde_details = 3
$end

$molecule
0 1
H -0.022326051844561903 -0.24559655346678747 0.06517804531605267
C -1.079097347172294 -0.5256668476917531 -0.0025010564433290377
H -1.2997875802559242 -1.5937490204219713 -0.07766535049039854
C -2.043573664427701 0.39509091079175307 0.006747967943320249
H -1.8229226643440808 1.4631849335219538 0.08189209999039979
H -3.1003554348554494 0.11503185496680379 -0.060852476016023796
$end
--------------------------------------------------------------

             Standard Nuclear Orientation (Angstroms)
    I     Atom           X                Y                Z
 ----------------------------------------------------------------
    1      H      -0.0223260518    -0.2455965535     0.0651780453
    2      C      -1.0790973472    -0.5256668477    -0.0025010564
    3      H      -1.2997875803    -1.5937490204    -0.0776653505
    4      C      -2.0435736644     0.3950909108     0.0067479679
    5      H      -1.8229226643     1.4631849335     0.0818921000
    6      H      -3.1003554349     0.1150318550    -0.0608524760
 ----------------------------------------------------------------

   10     -78.0396420847      3.79E-09 Convergence criterion met
 Total energy in the final basis set = -78.03964208
  Excited state 1 (singlet, A)                                     [converged]
  Term symbol:  2 (1) A                                     R^2 =  2.47681e-13
  Excitation energy:                                               8.731773 eV
  Excited state 2 (singlet, A)                                     [converged]
  Term symbol:  3 (1) A                                     R^2 =  2.19072e-13
  Excitation energy:                                               8.951894 eV
  Excited state 3 (singlet, A)                                     [converged]
  Term symbol:  4 (1) A                                     R^2 =  1.60790e-13
  Excitation energy:                                               9.141620 eV
  Excited state 4 (singlet, A)                                     [converged]
  Term symbol:  5 (1) A                                     R^2 =  1.61112e-13
  Excitation energy:                                               9.738155 eV
  Excited state 5 (singlet, A)                                     [converged]
  Term symbol:  6 (1) A                                     R^2 =  1.24760e-13
  Excitation energy:                                              10.158631 eV
  Excited state 6 (singlet, A)                                     [converged]
  Term symbol:  7 (1) A                                     R^2 =  6.33436e-13
  Excitation energy:                                              10.521146 eV
  Excited state 7 (singlet, A)                                     [converged]
  Term symbol:  8 (1) A                                     R^2 =  8.72987e-11
  Excitation energy:                                              11.433458 eV
  Excited state 8 (singlet, A)                                     [converged]
  Term symbol:  9 (1) A                                     R^2 =  5.02466e-11
  Excitation energy:                                              12.068155 eV
  Excited state 9 (singlet, A)                                     [converged]
  Term symbol:  10 (1) A                                    R^2 =  7.58107e-10
  Excitation energy:                                              12.346678 eV
  Excited state 10 (singlet, A)                                     [converged]
  Term symbol:  11 (1) A                                    R^2 =  5.53659e-07
  Excitation energy:                                              12.476346 eV
  Excitation energy:                                               0.220121 eV
  Excitation energy:                                               0.409847 eV
  Excitation energy:                                               0.189726 eV
  Excitation energy:                                               1.006382 eV
  Excitation energy:                                               0.786261 eV
  Excitation energy:                                               0.596535 eV
  Excitation energy:                                               1.426859 eV
  Excitation energy:                                               1.206737 eV
  Excitation energy:                                               1.017011 eV
  Excitation energy:                                               0.420476 eV
  Excitation energy:                                               1.789373 eV
  Excitation energy:                                               1.569252 eV
  Excitation energy:                                               1.379526 eV
  Excitation energy:                                               0.782991 eV
  Excitation energy:                                               0.362515 eV
  Excitation energy:                                               2.701686 eV
  Excitation energy:                                               2.481564 eV
  Excitation energy:                                               2.291838 eV
  Excitation energy:                                               1.695303 eV
  Excitation energy:                                               1.274827 eV
  Excitation energy:                                               0.912312 eV
  Excitation energy:                                               3.336382 eV
  Excitation energy:                                               3.116261 eV
  Excitation energy:                                               2.926535 eV
  Excitation energy:                                               2.330000 eV
  Excitation energy:                                               1.909523 eV
  Excitation energy:                                               1.547009 eV
  Excitation energy:                                               0.634696 eV
  Excitation energy:                                               3.614905 eV
  Excitation energy:                                               3.394784 eV
  Excitation energy:                                               3.205058 eV
  Excitation energy:                                               2.608523 eV
  Excitation energy:                                               2.188047 eV
  Excitation energy:                                               1.825532 eV
  Excitation energy:                                               0.913220 eV
  Excitation energy:                                               0.278523 eV
  Excitation energy:                                               3.744574 eV
  Excitation energy:                                               3.524453 eV
  Excitation energy:                                               3.334727 eV
  Excitation energy:                                               2.738192 eV
  Excitation energy:                                               2.317715 eV
  Excitation energy:                                               1.955200 eV
  Excitation energy:                                               1.042888 eV
  Excitation energy:                                               0.408192 eV
  Excitation energy:                                               0.129668 eV

                    Orbital Energies (a.u.)
 --------------------------------------------------------------

 Alpha MOs
 -- Occupied --
-11.2388 -11.2372  -1.0299  -0.7859  -0.6350  -0.5824  -0.4995  -0.3744

          Ground-State Mulliken Net Atomic Charges

     Atom                 Charge (a.u.)
  ----------------------------------------
      1 H                     0.052296
      2 C                    -0.104743
      3 H                     0.052453
      4 C                    -0.104751
      5 H                     0.052452
      6 H                     0.052294
  ----------------------------------------
  Sum of atomic charges =     0.000000

                    Cartesian Multipole Moments
 -----------------------------------------------------------------
    Charge (ESU x 10^10)
                -0.0000
    Dipole Moment (Debye)
         X      -0.0000      Y       0.0000      Z       0.0000
       Tot       0.0000
    Quadrupole Moments (Debye-Ang)
        XX     -12.2676     XY      -0.1063     YY     -12.2374
        XZ       0.1549     YZ       0.1998     ZZ     -15.6098

 Total job time:  145.12s(wall), 441.92s(cpu)
        *  Thank you very much for using Q-Chem.  Have a nice day.  *
