 Q-Chem 5.4 (devel), Q-Chem, Inc., Pleasanton, CA (2021)
 Q-Chem 5.4.1 for Intel X86 EM64T Linux

User input:
--------------------------------------------------------------
$comment
generated from CCJob.Templates
$end

$rem
sym_ignore = true
method = adc(2)
ee_states = 10
basis = cc-pVDZ
mem_static = 1024
mem_total = 40000
adc_davidson_maxiter = 900
adc_davidson_conv = 6
adc_print = 3
adc_prop_es = true
adc_prop_es2es = true
adc_prop_tpa = true
molden_format = True
state_analysis = true
print_orbitals = 15
gen_scfman = false
fde_export_density = true
fde_details = 3
$end

$molecule
0 1
H -0.021553435597910304 -0.24687440193287705 0.06306274196361189
C -1.078326390666554 -0.524160087383179 -0.002952600210454838
H -1.301473644612765 -1.5930276122045843 -0.07655774286592074
C -2.045026300714297 0.3942351062739019 0.00836000733737384
H -1.8214341639237144 1.4626522132439408 0.08112084825778373
H -3.1013254430386183 0.1164983713722051 -0.058400952771733454
$end
--------------------------------------------------------------

             Standard Nuclear Orientation (Angstroms)
    I     Atom           X                Y                Z
 ----------------------------------------------------------------
    1      H      -0.0215534356    -0.2468744019     0.0630627420
    2      C      -1.0783263907    -0.5241600874    -0.0029526002
    3      H      -1.3014736446    -1.5930276122    -0.0765577429
    4      C      -2.0450263007     0.3942351063     0.0083600073
    5      H      -1.8214341639     1.4626522132     0.0811208483
    6      H      -3.1013254430     0.1164983714    -0.0584009528
 ----------------------------------------------------------------

   10     -78.0396513021      9.51E-09 Convergence criterion met
 Total energy in the final basis set = -78.03965130
  Excited state 1 (singlet, A)                                     [converged]
  Term symbol:  2 (1) A                                     R^2 =  4.32144e-11
  Excitation energy:                                               8.731789 eV
  Excited state 2 (singlet, A)                                     [converged]
  Term symbol:  3 (1) A                                     R^2 =  4.48432e-12
  Excitation energy:                                               8.952443 eV
  Excited state 3 (singlet, A)                                     [converged]
  Term symbol:  4 (1) A                                     R^2 =  5.29082e-12
  Excitation energy:                                               9.141656 eV
  Excited state 4 (singlet, A)                                     [converged]
  Term symbol:  5 (1) A                                     R^2 =  1.05922e-11
  Excitation energy:                                               9.738241 eV
  Excited state 5 (singlet, A)                                     [converged]
  Term symbol:  6 (1) A                                     R^2 =  9.56507e-11
  Excitation energy:                                              10.158446 eV
  Excited state 6 (singlet, A)                                     [converged]
  Term symbol:  7 (1) A                                     R^2 =  4.89355e-10
  Excitation energy:                                              10.520821 eV
  Excited state 7 (singlet, A)                                     [converged]
  Term symbol:  8 (1) A                                     R^2 =  1.77079e-07
  Excitation energy:                                              11.433850 eV
  Excited state 8 (singlet, A)                                     [converged]
  Term symbol:  9 (1) A                                     R^2 =  3.62859e-07
  Excitation energy:                                              12.068255 eV
  Excited state 9 (singlet, A)                                     [converged]
  Term symbol:  10 (1) A                                    R^2 =  9.21756e-07
  Excitation energy:                                              12.346810 eV
  Excited state 10 (singlet, A)                                     [converged]
  Term symbol:  11 (1) A                                    R^2 =  7.64108e-07
  Excitation energy:                                              12.476796 eV
  Excitation energy:                                               0.220654 eV
  Excitation energy:                                               0.409867 eV
  Excitation energy:                                               0.189213 eV
  Excitation energy:                                               1.006452 eV
  Excitation energy:                                               0.785798 eV
  Excitation energy:                                               0.596584 eV
  Excitation energy:                                               1.426657 eV
  Excitation energy:                                               1.206003 eV
  Excitation energy:                                               1.016790 eV
  Excitation energy:                                               0.420205 eV
  Excitation energy:                                               1.789032 eV
  Excitation energy:                                               1.568378 eV
  Excitation energy:                                               1.379164 eV
  Excitation energy:                                               0.782580 eV
  Excitation energy:                                               0.362374 eV
  Excitation energy:                                               2.702061 eV
  Excitation energy:                                               2.481407 eV
  Excitation energy:                                               2.292193 eV
  Excitation energy:                                               1.695609 eV
  Excitation energy:                                               1.275404 eV
  Excitation energy:                                               0.913029 eV
  Excitation energy:                                               3.336466 eV
  Excitation energy:                                               3.115812 eV
  Excitation energy:                                               2.926599 eV
  Excitation energy:                                               2.330015 eV
  Excitation energy:                                               1.909809 eV
  Excitation energy:                                               1.547435 eV
  Excitation energy:                                               0.634406 eV
  Excitation energy:                                               3.615021 eV
  Excitation energy:                                               3.394368 eV
  Excitation energy:                                               3.205154 eV
  Excitation energy:                                               2.608570 eV
  Excitation energy:                                               2.188364 eV
  Excitation energy:                                               1.825990 eV
  Excitation energy:                                               0.912961 eV
  Excitation energy:                                               0.278555 eV
  Excitation energy:                                               3.745007 eV
  Excitation energy:                                               3.524353 eV
  Excitation energy:                                               3.335140 eV
  Excitation energy:                                               2.738555 eV
  Excitation energy:                                               2.318350 eV
  Excitation energy:                                               1.955976 eV
  Excitation energy:                                               1.042946 eV
  Excitation energy:                                               0.408541 eV
  Excitation energy:                                               0.129986 eV

                    Orbital Energies (a.u.)
 --------------------------------------------------------------

 Alpha MOs
 -- Occupied --
-11.2388 -11.2372  -1.0299  -0.7859  -0.6350  -0.5823  -0.4995  -0.3744

          Ground-State Mulliken Net Atomic Charges

     Atom                 Charge (a.u.)
  ----------------------------------------
      1 H                     0.052401
      2 C                    -0.105021
      3 H                     0.052405
      4 C                    -0.104480
      5 H                     0.052339
      6 H                     0.052356
  ----------------------------------------
  Sum of atomic charges =     0.000000

                    Cartesian Multipole Moments
 -----------------------------------------------------------------
    Charge (ESU x 10^10)
                -0.0000
    Dipole Moment (Debye)
         X       0.0001      Y       0.0001      Z      -0.0011
       Tot       0.0011
    Quadrupole Moments (Debye-Ang)
        XX     -12.2466     XY      -0.1050     YY     -12.2578
        XZ       0.1536     YZ       0.1949     ZZ     -15.6106

 Total job time:  121.61s(wall), 363.46s(cpu)
        *  Thank you very much for using Q-Chem.  Have a nice day.  *
