 Q-Chem 5.4 (devel), Q-Chem, Inc., Pleasanton, CA (2021)
 Q-Chem 5.4.1 for Intel X86 EM64T Linux

User input:
--------------------------------------------------------------
$comment
generated from CCJob.Templates
$end

$rem
sym_ignore = true
method = adc(2)
ee_states = 10
basis = cc-pVDZ
mem_static = 1024
mem_total = 40000
adc_davidson_maxiter = 900
adc_davidson_conv = 6
adc_print = 3
adc_prop_es = true
adc_prop_es2es = true
adc_prop_tpa = true
molden_format = True
state_analysis = true
print_orbitals = 15
gen_scfman = false
fde_export_density = true
fde_details = 3
$end

$molecule
0 1
H -0.029944215838444976 -0.23098666544595595 0.06964690542834766
C -1.094696747276631 -0.5118534549432003 -0.0024063004012289573
H -1.2929538204657802 -1.5916354721600645 -0.08487105870374113
C -2.0999111623660527 0.3659092776068114 0.01709956019785745
H -1.8506040087261977 1.4566172811335865 0.09212508428970226
H -3.113585155453542 0.09596751481947101 -0.06229406804238426
$end
--------------------------------------------------------------

             Standard Nuclear Orientation (Angstroms)
    I     Atom           X                Y                Z
 ----------------------------------------------------------------
    1      H      -0.0299442158    -0.2309866654     0.0696469054
    2      C      -1.0946967473    -0.5118534549    -0.0024063004
    3      H      -1.2929538205    -1.5916354722    -0.0848710587
    4      C      -2.0999111624     0.3659092776     0.0170995602
    5      H      -1.8506040087     1.4566172811     0.0921250843
    6      H      -3.1135851555     0.0959675148    -0.0622940680
 ----------------------------------------------------------------

   11     -78.0373049580      6.96E-09 Convergence criterion met
 Total energy in the final basis set = -78.03730496
  Excited state 1 (singlet, A)                                     [converged]
  Term symbol:  2 (1) A                                     R^2 =  4.11877e-13
  Excitation energy:                                               8.721100 eV
  Excited state 2 (singlet, A)                                     [converged]
  Term symbol:  3 (1) A                                     R^2 =  5.50285e-13
  Excitation energy:                                               8.892830 eV
  Excited state 3 (singlet, A)                                     [converged]
  Term symbol:  4 (1) A                                     R^2 =  3.37194e-13
  Excitation energy:                                               9.117186 eV
  Excited state 4 (singlet, A)                                     [converged]
  Term symbol:  5 (1) A                                     R^2 =  4.51592e-13
  Excitation energy:                                               9.744938 eV
  Excited state 5 (singlet, A)                                     [converged]
  Term symbol:  6 (1) A                                     R^2 =  2.36868e-13
  Excitation energy:                                              10.165524 eV
  Excited state 6 (singlet, A)                                     [converged]
  Term symbol:  7 (1) A                                     R^2 =  3.98781e-13
  Excitation energy:                                              10.536717 eV
  Excited state 7 (singlet, A)                                     [converged]
  Term symbol:  8 (1) A                                     R^2 =  9.95049e-12
  Excitation energy:                                              11.384072 eV
  Excited state 8 (singlet, A)                                     [converged]
  Term symbol:  9 (1) A                                     R^2 =  2.43340e-09
  Excitation energy:                                              12.054564 eV
  Excited state 9 (singlet, A)                                     [converged]
  Term symbol:  10 (1) A                                    R^2 =  3.04344e-08
  Excitation energy:                                              12.328927 eV
  Excited state 10 (singlet, A)                                     [converged]
  Term symbol:  11 (1) A                                    R^2 =  9.80485e-07
  Excitation energy:                                              12.436099 eV
  Excitation energy:                                               0.171730 eV
  Excitation energy:                                               0.396086 eV
  Excitation energy:                                               0.224356 eV
  Excitation energy:                                               1.023838 eV
  Excitation energy:                                               0.852108 eV
  Excitation energy:                                               0.627752 eV
  Excitation energy:                                               1.444424 eV
  Excitation energy:                                               1.272694 eV
  Excitation energy:                                               1.048338 eV
  Excitation energy:                                               0.420586 eV
  Excitation energy:                                               1.815617 eV
  Excitation energy:                                               1.643886 eV
  Excitation energy:                                               1.419530 eV
  Excitation energy:                                               0.791778 eV
  Excitation energy:                                               0.371192 eV
  Excitation energy:                                               2.662972 eV
  Excitation energy:                                               2.491242 eV
  Excitation energy:                                               2.266885 eV
  Excitation energy:                                               1.639134 eV
  Excitation energy:                                               1.218547 eV
  Excitation energy:                                               0.847355 eV
  Excitation energy:                                               3.333464 eV
  Excitation energy:                                               3.161734 eV
  Excitation energy:                                               2.937378 eV
  Excitation energy:                                               2.309626 eV
  Excitation energy:                                               1.889040 eV
  Excitation energy:                                               1.517848 eV
  Excitation energy:                                               0.670493 eV
  Excitation energy:                                               3.607827 eV
  Excitation energy:                                               3.436097 eV
  Excitation energy:                                               3.211741 eV
  Excitation energy:                                               2.583989 eV
  Excitation energy:                                               2.163403 eV
  Excitation energy:                                               1.792210 eV
  Excitation energy:                                               0.944855 eV
  Excitation energy:                                               0.274363 eV
  Excitation energy:                                               3.714999 eV
  Excitation energy:                                               3.543268 eV
  Excitation energy:                                               3.318912 eV
  Excitation energy:                                               2.691160 eV
  Excitation energy:                                               2.270574 eV
  Excitation energy:                                               1.899382 eV
  Excitation energy:                                               1.052027 eV
  Excitation energy:                                               0.381534 eV
  Excitation energy:                                               0.107172 eV

                    Orbital Energies (a.u.)
 --------------------------------------------------------------

 Alpha MOs
 -- Occupied --
-11.2401 -11.2367  -1.0298  -0.7869  -0.6353  -0.5833  -0.4976  -0.3743

          Ground-State Mulliken Net Atomic Charges

     Atom                 Charge (a.u.)
  ----------------------------------------
      1 H                     0.056287
      2 C                    -0.116415
      3 H                     0.051325
      4 C                    -0.090411
      5 H                     0.055319
      6 H                     0.043896
  ----------------------------------------
  Sum of atomic charges =     0.000000

                    Cartesian Multipole Moments
 -----------------------------------------------------------------
    Charge (ESU x 10^10)
                 0.0000
    Dipole Moment (Debye)
         X      -0.0092      Y      -0.0213      Z      -0.0167
       Tot       0.0286
    Quadrupole Moments (Debye-Ang)
        XX     -12.0460     XY      -0.0549     YY     -12.4421
        XZ       0.2043     YZ       0.2038     ZZ     -15.6120

 Total job time:  161.88s(wall), 447.75s(cpu)
        *  Thank you very much for using Q-Chem.  Have a nice day.  *
