 Q-Chem 5.4 (devel), Q-Chem, Inc., Pleasanton, CA (2021)
 Q-Chem 5.4.1 for Intel X86 EM64T Linux

User input:
--------------------------------------------------------------
$comment
generated from CCJob.Templates
$end

$rem
sym_ignore = true
method = adc(2)
ee_states = 10
basis = cc-pVDZ
mem_static = 1024
mem_total = 30000
adc_davidson_maxiter = 900
adc_davidson_conv = 6
adc_print = 3
adc_prop_es = true
adc_prop_es2es = true
adc_prop_tpa = true
molden_format = True
state_analysis = true
print_orbitals = 15
gen_scfman = false
fde_export_density = true
fde_details = 3
$end

$molecule
0 1
H -0.0348278765 -0.2442097827 0.0636489606
C -1.0765972949 -0.5242748755 -0.0023551776
H -1.313264467 -1.5767591607 -0.0757276926
C -2.043634118 0.3926884087 0.0061254933
H -1.8137616575 1.4459188338 0.0804456828
H -3.085977293 0.114931858 -0.0643381042
$end
--------------------------------------------------------------

             Standard Nuclear Orientation (Angstroms)
    I     Atom           X                Y                Z
 ----------------------------------------------------------------
    1      H      -0.0348278765    -0.2442097827     0.0636489606
    2      C      -1.0765972949    -0.5242748755    -0.0023551776
    3      H      -1.3132644670    -1.5767591607    -0.0757276926
    4      C      -2.0436341180     0.3926884087     0.0061254933
    5      H      -1.8137616575     1.4459188338     0.0804456828
    6      H      -3.0859772930     0.1149318580    -0.0643381042
 ----------------------------------------------------------------

   10     -78.0399272936      9.74E-09 Convergence criterion met
 Total energy in the final basis set = -78.03992729
  Excited state 1 (singlet, A)                                     [converged]
  Term symbol:  2 (1) A                                     R^2 =  5.31288e-14
  Excitation energy:                                               8.736968 eV
  Excited state 2 (singlet, A)                                     [converged]
  Term symbol:  3 (1) A                                     R^2 =  7.76463e-14
  Excitation energy:                                               9.054368 eV
  Excited state 3 (singlet, A)                                     [converged]
  Term symbol:  4 (1) A                                     R^2 =  6.73601e-14
  Excitation energy:                                               9.170295 eV
  Excited state 4 (singlet, A)                                     [converged]
  Term symbol:  5 (1) A                                     R^2 =  1.62147e-13
  Excitation energy:                                               9.832858 eV
  Excited state 5 (singlet, A)                                     [converged]
  Term symbol:  6 (1) A                                     R^2 =  2.96678e-13
  Excitation energy:                                              10.211709 eV
  Excited state 6 (singlet, A)                                     [converged]
  Term symbol:  7 (1) A                                     R^2 =  7.37337e-13
  Excitation energy:                                              10.535460 eV
  Excited state 7 (singlet, A)                                     [converged]
  Term symbol:  8 (1) A                                     R^2 =  2.32652e-11
  Excitation energy:                                              11.556244 eV
  Excited state 8 (singlet, A)                                     [converged]
  Term symbol:  9 (1) A                                     R^2 =  1.37745e-10
  Excitation energy:                                              12.165211 eV
  Excited state 9 (singlet, A)                                     [converged]
  Term symbol:  10 (1) A                                    R^2 =  1.87226e-09
  Excitation energy:                                              12.416967 eV
  Excited state 10 (singlet, A)                                     [converged]
  Term symbol:  11 (1) A                                    R^2 =  6.89162e-07
  Excitation energy:                                              12.645030 eV
  Excitation energy:                                               0.317400 eV
  Excitation energy:                                               0.433327 eV
  Excitation energy:                                               0.115927 eV
  Excitation energy:                                               1.095890 eV
  Excitation energy:                                               0.778490 eV
  Excitation energy:                                               0.662564 eV
  Excitation energy:                                               1.474740 eV
  Excitation energy:                                               1.157340 eV
  Excitation energy:                                               1.041414 eV
  Excitation energy:                                               0.378850 eV
  Excitation energy:                                               1.798492 eV
  Excitation energy:                                               1.481092 eV
  Excitation energy:                                               1.365165 eV
  Excitation energy:                                               0.702602 eV
  Excitation energy:                                               0.323752 eV
  Excitation energy:                                               2.819276 eV
  Excitation energy:                                               2.501875 eV
  Excitation energy:                                               2.385949 eV
  Excitation energy:                                               1.723385 eV
  Excitation energy:                                               1.344535 eV
  Excitation energy:                                               1.020784 eV
  Excitation energy:                                               3.428243 eV
  Excitation energy:                                               3.110843 eV
  Excitation energy:                                               2.994916 eV
  Excitation energy:                                               2.332353 eV
  Excitation energy:                                               1.953502 eV
  Excitation energy:                                               1.629751 eV
  Excitation energy:                                               0.608967 eV
  Excitation energy:                                               3.679999 eV
  Excitation energy:                                               3.362599 eV
  Excitation energy:                                               3.246672 eV
  Excitation energy:                                               2.584109 eV
  Excitation energy:                                               2.205259 eV
  Excitation energy:                                               1.881507 eV
  Excitation energy:                                               0.860724 eV
  Excitation energy:                                               0.251756 eV
  Excitation energy:                                               3.908062 eV
  Excitation energy:                                               3.590662 eV
  Excitation energy:                                               3.474735 eV
  Excitation energy:                                               2.812172 eV
  Excitation energy:                                               2.433322 eV
  Excitation energy:                                               2.109570 eV
  Excitation energy:                                               1.088787 eV
  Excitation energy:                                               0.479819 eV
  Excitation energy:                                               0.228063 eV

                    Orbital Energies (a.u.)
 --------------------------------------------------------------

 Alpha MOs
 -- Occupied --
-11.2351 -11.2335  -1.0323  -0.7897  -0.6411  -0.5819  -0.5046  -0.3740

          Ground-State Mulliken Net Atomic Charges

     Atom                 Charge (a.u.)
  ----------------------------------------
      1 H                     0.048120
      2 C                    -0.095092
      3 H                     0.047660
      4 C                    -0.095657
      5 H                     0.047215
      6 H                     0.047754
  ----------------------------------------
  Sum of atomic charges =     0.000000

                    Cartesian Multipole Moments
 -----------------------------------------------------------------
    Charge (ESU x 10^10)
                -0.0000
    Dipole Moment (Debye)
         X      -0.0014      Y       0.0019      Z      -0.0023
       Tot       0.0033
    Quadrupole Moments (Debye-Ang)
        XX     -12.2155     XY      -0.0588     YY     -12.2681
        XZ       0.1645     YZ       0.1936     ZZ     -15.5409

 Total job time:  182.90s(wall), 545.64s(cpu)
        *  Thank you very much for using Q-Chem.  Have a nice day.  *
