 Q-Chem 5.4 (devel), Q-Chem, Inc., Pleasanton, CA (2021)
 Q-Chem 5.4.1 for Intel X86 EM64T Linux

User input:
--------------------------------------------------------------
$comment
generated from CCJob.Templates
$end

$rem
sym_ignore = true
method = adc(2)
ee_states = 10
basis = cc-pVDZ
mem_static = 1024
mem_total = 40000
adc_davidson_maxiter = 900
adc_davidson_conv = 6
adc_print = 3
adc_prop_es = true
adc_prop_es2es = true
adc_prop_tpa = true
molden_format = True
state_analysis = true
print_orbitals = 15
gen_scfman = false
fde_export_density = true
fde_details = 3
$end

$molecule
0 1
H -0.0348278765 -0.2442097827 0.0736489606
C -1.0765972949 -0.5242748755 -0.0023551776
H -1.313264467 -1.5767591607 -0.0757276926
C -2.043634118 0.3926884087 0.0061254933
H -1.8137616575 1.4459188338 0.0804456828
H -3.085977293 0.114931858 -0.0593381042
$end
--------------------------------------------------------------

             Standard Nuclear Orientation (Angstroms)
    I     Atom           X                Y                Z
 ----------------------------------------------------------------
    1      H      -0.0348278765    -0.2442097827     0.0736489606
    2      C      -1.0765972949    -0.5242748755    -0.0023551776
    3      H      -1.3132644670    -1.5767591607    -0.0757276926
    4      C      -2.0436341180     0.3926884087     0.0061254933
    5      H      -1.8137616575     1.4459188338     0.0804456828
    6      H      -3.0859772930     0.1149318580    -0.0593381042
 ----------------------------------------------------------------

   11     -78.0399235470      3.62E-09 Convergence criterion met
 Total energy in the final basis set = -78.03992355
  Excited state 1 (singlet, A)                                     [converged]
  Term symbol:  2 (1) A                                     R^2 =  1.91178e-13
  Excitation energy:                                               8.736635 eV
  Excited state 2 (singlet, A)                                     [converged]
  Term symbol:  3 (1) A                                     R^2 =  2.13839e-13
  Excitation energy:                                               9.054220 eV
  Excited state 3 (singlet, A)                                     [converged]
  Term symbol:  4 (1) A                                     R^2 =  9.41063e-14
  Excitation energy:                                               9.169796 eV
  Excited state 4 (singlet, A)                                     [converged]
  Term symbol:  5 (1) A                                     R^2 =  3.03063e-13
  Excitation energy:                                               9.832297 eV
  Excited state 5 (singlet, A)                                     [converged]
  Term symbol:  6 (1) A                                     R^2 =  1.45123e-13
  Excitation energy:                                              10.211228 eV
  Excited state 6 (singlet, A)                                     [converged]
  Term symbol:  7 (1) A                                     R^2 =  2.28478e-13
  Excitation energy:                                              10.535065 eV
  Excited state 7 (singlet, A)                                     [converged]
  Term symbol:  8 (1) A                                     R^2 =  1.76524e-12
  Excitation energy:                                              11.555508 eV
  Excited state 8 (singlet, A)                                     [converged]
  Term symbol:  9 (1) A                                     R^2 =  1.31722e-10
  Excitation energy:                                              12.164930 eV
  Excited state 9 (singlet, A)                                     [converged]
  Term symbol:  10 (1) A                                    R^2 =  3.71534e-09
  Excitation energy:                                              12.416709 eV
  Excited state 10 (singlet, A)                                     [converged]
  Term symbol:  11 (1) A                                    R^2 =  9.27010e-07
  Excitation energy:                                              12.644181 eV
  Excitation energy:                                               0.317585 eV
  Excitation energy:                                               0.433160 eV
  Excitation energy:                                               0.115576 eV
  Excitation energy:                                               1.095661 eV
  Excitation energy:                                               0.778077 eV
  Excitation energy:                                               0.662501 eV
  Excitation energy:                                               1.474593 eV
  Excitation energy:                                               1.157008 eV
  Excitation energy:                                               1.041432 eV
  Excitation energy:                                               0.378931 eV
  Excitation energy:                                               1.798430 eV
  Excitation energy:                                               1.480846 eV
  Excitation energy:                                               1.365270 eV
  Excitation energy:                                               0.702769 eV
  Excitation energy:                                               0.323837 eV
  Excitation energy:                                               2.818873 eV
  Excitation energy:                                               2.501289 eV
  Excitation energy:                                               2.385713 eV
  Excitation energy:                                               1.723212 eV
  Excitation energy:                                               1.344280 eV
  Excitation energy:                                               1.020443 eV
  Excitation energy:                                               3.428295 eV
  Excitation energy:                                               3.110710 eV
  Excitation energy:                                               2.995134 eV
  Excitation energy:                                               2.332633 eV
  Excitation energy:                                               1.953702 eV
  Excitation energy:                                               1.629865 eV
  Excitation energy:                                               0.609422 eV
  Excitation energy:                                               3.680073 eV
  Excitation energy:                                               3.362489 eV
  Excitation energy:                                               3.246913 eV
  Excitation energy:                                               2.584412 eV
  Excitation energy:                                               2.205481 eV
  Excitation energy:                                               1.881643 eV
  Excitation energy:                                               0.861200 eV
  Excitation energy:                                               0.251779 eV
  Excitation energy:                                               3.907546 eV
  Excitation energy:                                               3.589962 eV
  Excitation energy:                                               3.474386 eV
  Excitation energy:                                               2.811885 eV
  Excitation energy:                                               2.432953 eV
  Excitation energy:                                               2.109116 eV
  Excitation energy:                                               1.088673 eV
  Excitation energy:                                               0.479251 eV
  Excitation energy:                                               0.227473 eV

                    Orbital Energies (a.u.)
 --------------------------------------------------------------

 Alpha MOs
 -- Occupied --
-11.2351 -11.2335  -1.0323  -0.7897  -0.6411  -0.5819  -0.5046  -0.3740

          Ground-State Mulliken Net Atomic Charges

     Atom                 Charge (a.u.)
  ----------------------------------------
      1 H                     0.048311
      2 C                    -0.095451
      3 H                     0.047705
      4 C                    -0.095422
      5 H                     0.047195
      6 H                     0.047663
  ----------------------------------------
  Sum of atomic charges =     0.000000

                    Cartesian Multipole Moments
 -----------------------------------------------------------------
    Charge (ESU x 10^10)
                -0.0000
    Dipole Moment (Debye)
         X      -0.0026      Y       0.0014      Z       0.0081
       Tot       0.0086
    Quadrupole Moments (Debye-Ang)
        XX     -12.2131     XY      -0.0578     YY     -12.2680
        XZ       0.1546     YZ       0.1930     ZZ     -15.5406

 Total job time:  70.21s(wall), 189.58s(cpu)
        *  Thank you very much for using Q-Chem.  Have a nice day.  *
