 Q-Chem 5.4 (devel), Q-Chem, Inc., Pleasanton, CA (2021)
 Q-Chem 5.4.1 for Intel X86 EM64T Linux

User input:
--------------------------------------------------------------
$comment
generated from CCJob.Templates
$end

$rem
sym_ignore = true
method = adc(2)
ee_states = 10
basis = cc-pVDZ
mem_static = 1024
mem_total = 40000
adc_davidson_maxiter = 900
adc_davidson_conv = 6
adc_print = 3
adc_prop_es = true
adc_prop_es2es = true
adc_prop_tpa = true
molden_format = True
state_analysis = true
print_orbitals = 15
gen_scfman = false
fde_export_density = true
fde_details = 3
$end

$molecule
0 1
H -0.03557278023362088 -0.21291153464613918 0.06651170575748691
C -1.0937474720316838 -0.5093390503182028 -0.0022135003506040998
H -1.3360037521971138 -1.5807517081397837 -0.0786255388071056
C -2.028921635567682 0.3787612734175949 0.0064609998507891035
H -1.7867119164046832 1.4501895172403916 0.08284996430633915
H -3.0871098704667754 0.0823515041476985 -0.062185748457328334
$end
--------------------------------------------------------------

             Standard Nuclear Orientation (Angstroms)
    I     Atom           X                Y                Z
 ----------------------------------------------------------------
    1      H      -0.0355727802    -0.2129115346     0.0665117058
    2      C      -1.0937474720    -0.5093390503    -0.0022135004
    3      H      -1.3360037522    -1.5807517081    -0.0786255388
    4      C      -2.0289216356     0.3787612734     0.0064609999
    5      H      -1.7867119164     1.4501895172     0.0828499643
    6      H      -3.0871098705     0.0823515041    -0.0621857485
 ----------------------------------------------------------------

   10     -78.0376820853      3.23E-09 Convergence criterion met
 Total energy in the final basis set = -78.03768209
  Excited state 1 (singlet, A)                                     [converged]
  Term symbol:  2 (1) A                                     R^2 =  2.43155e-13
  Excitation energy:                                               9.081866 eV
  Excited state 2 (singlet, A)                                     [converged]
  Term symbol:  3 (1) A                                     R^2 =  4.35075e-13
  Excitation energy:                                               9.131516 eV
  Excited state 3 (singlet, A)                                     [converged]
  Term symbol:  4 (1) A                                     R^2 =  6.54247e-13
  Excitation energy:                                               9.250628 eV
  Excited state 4 (singlet, A)                                     [converged]
  Term symbol:  5 (1) A                                     R^2 =  3.28229e-13
  Excitation energy:                                               9.800081 eV
  Excited state 5 (singlet, A)                                     [converged]
  Term symbol:  6 (1) A                                     R^2 =  2.84407e-13
  Excitation energy:                                              10.405160 eV
  Excited state 6 (singlet, A)                                     [converged]
  Term symbol:  7 (1) A                                     R^2 =  1.20518e-12
  Excitation energy:                                              10.815759 eV
  Excited state 7 (singlet, A)                                     [converged]
  Term symbol:  8 (1) A                                     R^2 =  1.59397e-09
  Excitation energy:                                              11.225931 eV
  Excited state 8 (singlet, A)                                     [converged]
  Term symbol:  9 (1) A                                     R^2 =  3.35800e-09
  Excitation energy:                                              12.218947 eV
  Excited state 9 (singlet, A)                                     [converged]
  Term symbol:  10 (1) A                                    R^2 =  1.29284e-07
  Excitation energy:                                              12.431019 eV
  Excited state 10 (singlet, A)                                     [converged]
  Term symbol:  11 (1) A                                    R^2 =  9.43258e-07
  Excitation energy:                                              12.609330 eV
  Excitation energy:                                               0.049650 eV
  Excitation energy:                                               0.168762 eV
  Excitation energy:                                               0.119112 eV
  Excitation energy:                                               0.718215 eV
  Excitation energy:                                               0.668565 eV
  Excitation energy:                                               0.549453 eV
  Excitation energy:                                               1.323293 eV
  Excitation energy:                                               1.273643 eV
  Excitation energy:                                               1.154531 eV
  Excitation energy:                                               0.605078 eV
  Excitation energy:                                               1.733893 eV
  Excitation energy:                                               1.684243 eV
  Excitation energy:                                               1.565131 eV
  Excitation energy:                                               1.015678 eV
  Excitation energy:                                               0.410600 eV
  Excitation energy:                                               2.144064 eV
  Excitation energy:                                               2.094414 eV
  Excitation energy:                                               1.975302 eV
  Excitation energy:                                               1.425849 eV
  Excitation energy:                                               0.820771 eV
  Excitation energy:                                               0.410171 eV
  Excitation energy:                                               3.137081 eV
  Excitation energy:                                               3.087431 eV
  Excitation energy:                                               2.968319 eV
  Excitation energy:                                               2.418866 eV
  Excitation energy:                                               1.813788 eV
  Excitation energy:                                               1.403188 eV
  Excitation energy:                                               0.993016 eV
  Excitation energy:                                               3.349153 eV
  Excitation energy:                                               3.299503 eV
  Excitation energy:                                               3.180391 eV
  Excitation energy:                                               2.630938 eV
  Excitation energy:                                               2.025859 eV
  Excitation energy:                                               1.615260 eV
  Excitation energy:                                               1.205088 eV
  Excitation energy:                                               0.212072 eV
  Excitation energy:                                               3.527463 eV
  Excitation energy:                                               3.477813 eV
  Excitation energy:                                               3.358701 eV
  Excitation energy:                                               2.809248 eV
  Excitation energy:                                               2.204170 eV
  Excitation energy:                                               1.793570 eV
  Excitation energy:                                               1.383399 eV
  Excitation energy:                                               0.390383 eV
  Excitation energy:                                               0.178311 eV

                    Orbital Energies (a.u.)
 --------------------------------------------------------------

 Alpha MOs
 -- Occupied --
-11.2323 -11.2302  -1.0440  -0.7750  -0.6419  -0.5830  -0.4923  -0.3852

          Ground-State Mulliken Net Atomic Charges

     Atom                 Charge (a.u.)
  ----------------------------------------
      1 H                     0.049777
      2 C                    -0.099551
      3 H                     0.049782
      4 C                    -0.099562
      5 H                     0.049780
      6 H                     0.049774
  ----------------------------------------
  Sum of atomic charges =     0.000000

                    Cartesian Multipole Moments
 -----------------------------------------------------------------
    Charge (ESU x 10^10)
                -0.0000
    Dipole Moment (Debye)
         X      -0.0000      Y       0.0000      Z       0.0000
       Tot       0.0000
    Quadrupole Moments (Debye-Ang)
        XX     -12.3307     XY       0.1100     YY     -12.3233
        XZ       0.1583     YZ       0.1967     ZZ     -15.4708

 Total job time:  133.60s(wall), 405.02s(cpu)
        *  Thank you very much for using Q-Chem.  Have a nice day.  *
