 Q-Chem 5.4 (devel), Q-Chem, Inc., Pleasanton, CA (2021)
 Q-Chem 5.4.1 for Intel X86 EM64T Linux

User input:
--------------------------------------------------------------
$comment
generated from CCJob.Templates
$end

$rem
sym_ignore = true
method = adc(2)
ee_states = 10
basis = cc-pVDZ
mem_static = 1024
mem_total = 40000
adc_davidson_maxiter = 900
adc_davidson_conv = 6
adc_print = 3
adc_prop_es = true
adc_prop_es2es = true
adc_prop_tpa = true
molden_format = True
state_analysis = true
print_orbitals = 15
gen_scfman = false
fde_export_density = true
fde_details = 3
$end

$molecule
0 1
H -0.0348278765 -0.2442097827 0.0636489606
C -1.0765972949 -0.5242748755 -0.0023551776
H -1.313264467 -1.5767591607 -0.11572769259999999
C -2.043634118 0.3926884087 0.0061254933
H -1.8137616575 1.4459188338 0.0804456828
H -3.085977293 0.114931858 -0.0593381042
$end
--------------------------------------------------------------

             Standard Nuclear Orientation (Angstroms)
    I     Atom           X                Y                Z
 ----------------------------------------------------------------
    1      H      -0.0348278765    -0.2442097827     0.0636489606
    2      C      -1.0765972949    -0.5242748755    -0.0023551776
    3      H      -1.3132644670    -1.5767591607    -0.1157276926
    4      C      -2.0436341180     0.3926884087     0.0061254933
    5      H      -1.8137616575     1.4459188338     0.0804456828
    6      H      -3.0859772930     0.1149318580    -0.0593381042
 ----------------------------------------------------------------

   11     -78.0398476697      7.19E-09 Convergence criterion met
 Total energy in the final basis set = -78.03984767
  Excited state 1 (singlet, A)                                     [converged]
  Term symbol:  2 (1) A                                     R^2 =  2.61633e-13
  Excitation energy:                                               8.727374 eV
  Excited state 2 (singlet, A)                                     [converged]
  Term symbol:  3 (1) A                                     R^2 =  8.81975e-14
  Excitation energy:                                               9.055058 eV
  Excited state 3 (singlet, A)                                     [converged]
  Term symbol:  4 (1) A                                     R^2 =  3.47755e-13
  Excitation energy:                                               9.165850 eV
  Excited state 4 (singlet, A)                                     [converged]
  Term symbol:  5 (1) A                                     R^2 =  2.31971e-13
  Excitation energy:                                               9.828435 eV
  Excited state 5 (singlet, A)                                     [converged]
  Term symbol:  6 (1) A                                     R^2 =  7.34933e-13
  Excitation energy:                                              10.206970 eV
  Excited state 6 (singlet, A)                                     [converged]
  Term symbol:  7 (1) A                                     R^2 =  8.98858e-13
  Excitation energy:                                              10.531507 eV
  Excited state 7 (singlet, A)                                     [converged]
  Term symbol:  8 (1) A                                     R^2 =  2.10610e-10
  Excitation energy:                                              11.549639 eV
  Excited state 8 (singlet, A)                                     [converged]
  Term symbol:  9 (1) A                                     R^2 =  4.34749e-09
  Excitation energy:                                              12.160895 eV
  Excited state 9 (singlet, A)                                     [converged]
  Term symbol:  10 (1) A                                    R^2 =  3.93604e-08
  Excitation energy:                                              12.412875 eV
  Excited state 10 (singlet, A)                                     [converged]
  Term symbol:  11 (1) A                                    R^2 =  8.37305e-07
  Excitation energy:                                              12.637454 eV
  Excitation energy:                                               0.327684 eV
  Excitation energy:                                               0.438475 eV
  Excitation energy:                                               0.110791 eV
  Excitation energy:                                               1.101061 eV
  Excitation energy:                                               0.773377 eV
  Excitation energy:                                               0.662586 eV
  Excitation energy:                                               1.479595 eV
  Excitation energy:                                               1.151911 eV
  Excitation energy:                                               1.041120 eV
  Excitation energy:                                               0.378534 eV
  Excitation energy:                                               1.804133 eV
  Excitation energy:                                               1.476449 eV
  Excitation energy:                                               1.365657 eV
  Excitation energy:                                               0.703072 eV
  Excitation energy:                                               0.324538 eV
  Excitation energy:                                               2.822265 eV
  Excitation energy:                                               2.494581 eV
  Excitation energy:                                               2.383789 eV
  Excitation energy:                                               1.721204 eV
  Excitation energy:                                               1.342670 eV
  Excitation energy:                                               1.018132 eV
  Excitation energy:                                               3.433520 eV
  Excitation energy:                                               3.105836 eV
  Excitation energy:                                               2.995045 eV
  Excitation energy:                                               2.332460 eV
  Excitation energy:                                               1.953925 eV
  Excitation energy:                                               1.629388 eV
  Excitation energy:                                               0.611256 eV
  Excitation energy:                                               3.685501 eV
  Excitation energy:                                               3.357817 eV
  Excitation energy:                                               3.247025 eV
  Excitation energy:                                               2.584440 eV
  Excitation energy:                                               2.205906 eV
  Excitation energy:                                               1.881368 eV
  Excitation energy:                                               0.863236 eV
  Excitation energy:                                               0.251980 eV
  Excitation energy:                                               3.910079 eV
  Excitation energy:                                               3.582395 eV
  Excitation energy:                                               3.471604 eV
  Excitation energy:                                               2.809018 eV
  Excitation energy:                                               2.430484 eV
  Excitation energy:                                               2.105946 eV
  Excitation energy:                                               1.087814 eV
  Excitation energy:                                               0.476559 eV
  Excitation energy:                                               0.224578 eV

                    Orbital Energies (a.u.)
 --------------------------------------------------------------

 Alpha MOs
 -- Occupied --
-11.2353 -11.2336  -1.0322  -0.7894  -0.6409  -0.5817  -0.5044  -0.3740

          Ground-State Mulliken Net Atomic Charges

     Atom                 Charge (a.u.)
  ----------------------------------------
      1 H                     0.048308
      2 C                    -0.096916
      3 H                     0.048658
      4 C                    -0.094978
      5 H                     0.047218
      6 H                     0.047709
  ----------------------------------------
  Sum of atomic charges =     0.000000

                    Cartesian Multipole Moments
 -----------------------------------------------------------------
    Charge (ESU x 10^10)
                 0.0000
    Dipole Moment (Debye)
         X      -0.0011      Y       0.0062      Z      -0.0264
       Tot       0.0272
    Quadrupole Moments (Debye-Ang)
        XX     -12.2160     XY      -0.0643     YY     -12.2803
        XZ       0.1941     YZ       0.2455     ZZ     -15.5378

 Total job time:  89.62s(wall), 293.12s(cpu)
        *  Thank you very much for using Q-Chem.  Have a nice day.  *
