 Q-Chem 5.4 (devel), Q-Chem, Inc., Pleasanton, CA (2021)
 Q-Chem 5.4.1 for Intel X86 EM64T Linux

User input:
--------------------------------------------------------------
$comment
generated from CCJob.Templates
$end

$rem
sym_ignore = true
method = adc(2)
ee_states = 10
basis = cc-pVDZ
mem_static = 1024
mem_total = 40000
adc_davidson_maxiter = 900
adc_davidson_conv = 6
adc_print = 3
adc_prop_es = true
adc_prop_es2es = true
adc_prop_tpa = true
molden_format = True
state_analysis = true
print_orbitals = 15
gen_scfman = false
fde_export_density = true
fde_details = 3
$end

$molecule
0 1
H -0.0348278765 -0.2442097827 0.0636489606
C -1.0765972949 -0.5242748755 -0.0023551776
H -1.313264467 -1.5767591607 -0.0757276926
C -2.043634118 0.3926884087 0.0061254933
H -1.8137616575 1.4459188338 0.0804456828
H -3.085977293 0.114931858 -0.049338104199999996
$end
--------------------------------------------------------------

             Standard Nuclear Orientation (Angstroms)
    I     Atom           X                Y                Z
 ----------------------------------------------------------------
    1      H      -0.0348278765    -0.2442097827     0.0636489606
    2      C      -1.0765972949    -0.5242748755    -0.0023551776
    3      H      -1.3132644670    -1.5767591607    -0.0757276926
    4      C      -2.0436341180     0.3926884087     0.0061254933
    5      H      -1.8137616575     1.4459188338     0.0804456828
    6      H      -3.0859772930     0.1149318580    -0.0493381042
 ----------------------------------------------------------------

   11     -78.0399196088      3.49E-09 Convergence criterion met
 Total energy in the final basis set = -78.03991961
  Excited state 1 (singlet, A)                                     [converged]
  Term symbol:  2 (1) A                                     R^2 =  8.12030e-14
  Excitation energy:                                               8.736486 eV
  Excited state 2 (singlet, A)                                     [converged]
  Term symbol:  3 (1) A                                     R^2 =  6.78596e-14
  Excitation energy:                                               9.054939 eV
  Excited state 3 (singlet, A)                                     [converged]
  Term symbol:  4 (1) A                                     R^2 =  5.75215e-14
  Excitation energy:                                               9.171548 eV
  Excited state 4 (singlet, A)                                     [converged]
  Term symbol:  5 (1) A                                     R^2 =  6.99740e-14
  Excitation energy:                                               9.834291 eV
  Excited state 5 (singlet, A)                                     [converged]
  Term symbol:  6 (1) A                                     R^2 =  1.71516e-13
  Excitation energy:                                              10.212801 eV
  Excited state 6 (singlet, A)                                     [converged]
  Term symbol:  7 (1) A                                     R^2 =  4.59784e-13
  Excitation energy:                                              10.536342 eV
  Excited state 7 (singlet, A)                                     [converged]
  Term symbol:  8 (1) A                                     R^2 =  2.72412e-11
  Excitation energy:                                              11.558089 eV
  Excited state 8 (singlet, A)                                     [converged]
  Term symbol:  9 (1) A                                     R^2 =  1.34539e-10
  Excitation energy:                                              12.165548 eV
  Excited state 9 (singlet, A)                                     [converged]
  Term symbol:  10 (1) A                                    R^2 =  3.93954e-09
  Excitation energy:                                              12.417271 eV
  Excited state 10 (singlet, A)                                     [converged]
  Term symbol:  11 (1) A                                    R^2 =  9.09188e-07
  Excitation energy:                                              12.647067 eV
  Excitation energy:                                               0.318452 eV
  Excitation energy:                                               0.435062 eV
  Excitation energy:                                               0.116610 eV
  Excitation energy:                                               1.097805 eV
  Excitation energy:                                               0.779353 eV
  Excitation energy:                                               0.662743 eV
  Excitation energy:                                               1.476315 eV
  Excitation energy:                                               1.157863 eV
  Excitation energy:                                               1.041253 eV
  Excitation energy:                                               0.378510 eV
  Excitation energy:                                               1.799856 eV
  Excitation energy:                                               1.481403 eV
  Excitation energy:                                               1.364794 eV
  Excitation energy:                                               0.702051 eV
  Excitation energy:                                               0.323540 eV
  Excitation energy:                                               2.821603 eV
  Excitation energy:                                               2.503150 eV
  Excitation energy:                                               2.386541 eV
  Excitation energy:                                               1.723798 eV
  Excitation energy:                                               1.345288 eV
  Excitation energy:                                               1.021747 eV
  Excitation energy:                                               3.429062 eV
  Excitation energy:                                               3.110610 eV
  Excitation energy:                                               2.994000 eV
  Excitation energy:                                               2.331257 eV
  Excitation energy:                                               1.952747 eV
  Excitation energy:                                               1.629206 eV
  Excitation energy:                                               0.607459 eV
  Excitation energy:                                               3.680784 eV
  Excitation energy:                                               3.362332 eV
  Excitation energy:                                               3.245722 eV
  Excitation energy:                                               2.582979 eV
  Excitation energy:                                               2.204469 eV
  Excitation energy:                                               1.880929 eV
  Excitation energy:                                               0.859182 eV
  Excitation energy:                                               0.251722 eV
  Excitation energy:                                               3.910580 eV
  Excitation energy:                                               3.592128 eV
  Excitation energy:                                               3.475518 eV
  Excitation energy:                                               2.812775 eV
  Excitation energy:                                               2.434265 eV
  Excitation energy:                                               2.110725 eV
  Excitation energy:                                               1.088978 eV
  Excitation energy:                                               0.481518 eV
  Excitation energy:                                               0.229796 eV

                    Orbital Energies (a.u.)
 --------------------------------------------------------------

 Alpha MOs
 -- Occupied --
-11.2351 -11.2334  -1.0323  -0.7899  -0.6412  -0.5820  -0.5046  -0.3740

          Ground-State Mulliken Net Atomic Charges

     Atom                 Charge (a.u.)
  ----------------------------------------
      1 H                     0.048126
      2 C                    -0.095190
      3 H                     0.047661
      4 C                    -0.095252
      5 H                     0.047149
      6 H                     0.047506
  ----------------------------------------
  Sum of atomic charges =     0.000000

                    Cartesian Multipole Moments
 -----------------------------------------------------------------
    Charge (ESU x 10^10)
                -0.0000
    Dipole Moment (Debye)
         X      -0.0024      Y       0.0013      Z       0.0081
       Tot       0.0086
    Quadrupole Moments (Debye-Ang)
        XX     -12.2096     XY      -0.0582     YY     -12.2682
        XZ       0.1291     YZ       0.1928     ZZ     -15.5414

 Total job time:  73.25s(wall), 196.90s(cpu)
        *  Thank you very much for using Q-Chem.  Have a nice day.  *
