 Q-Chem 5.4 (devel), Q-Chem, Inc., Pleasanton, CA (2021)
 Q-Chem 5.4.1 for Intel X86 EM64T Linux

User input:
--------------------------------------------------------------
$comment
generated from CCJob.Templates
$end

$rem
sym_ignore = true
method = adc(2)
ee_states = 10
basis = cc-pVDZ
mem_static = 1024
mem_total = 40000
adc_davidson_maxiter = 900
adc_davidson_conv = 6
adc_print = 3
adc_prop_es = true
adc_prop_es2es = true
adc_prop_tpa = true
molden_format = True
state_analysis = true
print_orbitals = 15
gen_scfman = false
fde_export_density = true
fde_details = 3
$end

$molecule
0 1
H -0.023215495301924353 -0.24299762661082547 0.04817514832830397
C -1.083414745816852 -0.523748095419819 -0.011147818830661788
H -1.3011242207139484 -1.5950684318379702 -0.05369514278756177
C -2.0566716386720256 0.38824119940069785 -0.05079762984456558
H -1.8266331269844216 1.4630748811933432 0.03873917171440989
H -3.1045124344965602 0.11100567636578397 -0.06303254760142725
$end
--------------------------------------------------------------

             Standard Nuclear Orientation (Angstroms)
    I     Atom           X                Y                Z
 ----------------------------------------------------------------
    1      H      -0.0232154953    -0.2429976266     0.0481751483
    2      C      -1.0834147458    -0.5237480954    -0.0111478188
    3      H      -1.3011242207    -1.5950684318    -0.0536951428
    4      C      -2.0566716387     0.3882411994    -0.0507976298
    5      H      -1.8266331270     1.4630748812     0.0387391717
    6      H      -3.1045124345     0.1110056764    -0.0630325476
 ----------------------------------------------------------------

   11     -78.0391091344      7.80E-09 Convergence criterion met
 Total energy in the final basis set = -78.03910913
  Excited state 1 (singlet, A)                                     [converged]
  Term symbol:  2 (1) A                                     R^2 =  7.37870e-13
  Excitation energy:                                               8.716030 eV
  Excited state 2 (singlet, A)                                     [converged]
  Term symbol:  3 (1) A                                     R^2 =  3.99098e-13
  Excitation energy:                                               8.933298 eV
  Excited state 3 (singlet, A)                                     [converged]
  Term symbol:  4 (1) A                                     R^2 =  1.34257e-13
  Excitation energy:                                               9.137353 eV
  Excited state 4 (singlet, A)                                     [converged]
  Term symbol:  5 (1) A                                     R^2 =  6.47142e-13
  Excitation energy:                                               9.736226 eV
  Excited state 5 (singlet, A)                                     [converged]
  Term symbol:  6 (1) A                                     R^2 =  1.27869e-13
  Excitation energy:                                              10.150335 eV
  Excited state 6 (singlet, A)                                     [converged]
  Term symbol:  7 (1) A                                     R^2 =  4.77869e-13
  Excitation energy:                                              10.507116 eV
  Excited state 7 (singlet, A)                                     [converged]
  Term symbol:  8 (1) A                                     R^2 =  8.13591e-11
  Excitation energy:                                              11.424955 eV
  Excited state 8 (singlet, A)                                     [converged]
  Term symbol:  9 (1) A                                     R^2 =  2.42264e-08
  Excitation energy:                                              12.052426 eV
  Excited state 9 (singlet, A)                                     [converged]
  Term symbol:  10 (1) A                                    R^2 =  2.77430e-07
  Excitation energy:                                              12.336805 eV
  Excited state 10 (singlet, A)                                     [converged]
  Term symbol:  11 (1) A                                    R^2 =  9.05530e-07
  Excitation energy:                                              12.470613 eV
  Excitation energy:                                               0.217268 eV
  Excitation energy:                                               0.421323 eV
  Excitation energy:                                               0.204056 eV
  Excitation energy:                                               1.020196 eV
  Excitation energy:                                               0.802928 eV
  Excitation energy:                                               0.598873 eV
  Excitation energy:                                               1.434305 eV
  Excitation energy:                                               1.217037 eV
  Excitation energy:                                               1.012981 eV
  Excitation energy:                                               0.414109 eV
  Excitation energy:                                               1.791086 eV
  Excitation energy:                                               1.573818 eV
  Excitation energy:                                               1.369762 eV
  Excitation energy:                                               0.770890 eV
  Excitation energy:                                               0.356781 eV
  Excitation energy:                                               2.708925 eV
  Excitation energy:                                               2.491657 eV
  Excitation energy:                                               2.287601 eV
  Excitation energy:                                               1.688729 eV
  Excitation energy:                                               1.274620 eV
  Excitation energy:                                               0.917839 eV
  Excitation energy:                                               3.336396 eV
  Excitation energy:                                               3.119128 eV
  Excitation energy:                                               2.915072 eV
  Excitation energy:                                               2.316200 eV
  Excitation energy:                                               1.902091 eV
  Excitation energy:                                               1.545310 eV
  Excitation energy:                                               0.627471 eV
  Excitation energy:                                               3.620775 eV
  Excitation energy:                                               3.403507 eV
  Excitation energy:                                               3.199451 eV
  Excitation energy:                                               2.600579 eV
  Excitation energy:                                               2.186470 eV
  Excitation energy:                                               1.829689 eV
  Excitation energy:                                               0.911850 eV
  Excitation energy:                                               0.284379 eV
  Excitation energy:                                               3.754583 eV
  Excitation energy:                                               3.537315 eV
  Excitation energy:                                               3.333259 eV
  Excitation energy:                                               2.734387 eV
  Excitation energy:                                               2.320278 eV
  Excitation energy:                                               1.963497 eV
  Excitation energy:                                               1.045658 eV
  Excitation energy:                                               0.418187 eV
  Excitation energy:                                               0.133808 eV

                    Orbital Energies (a.u.)
 --------------------------------------------------------------

 Alpha MOs
 -- Occupied --
-11.2392 -11.2374  -1.0297  -0.7858  -0.6348  -0.5820  -0.4993  -0.3743

          Ground-State Mulliken Net Atomic Charges

     Atom                 Charge (a.u.)
  ----------------------------------------
      1 H                     0.053720
      2 C                    -0.107044
      3 H                     0.052028
      4 C                    -0.103454
      5 H                     0.053816
      6 H                     0.050933
  ----------------------------------------
  Sum of atomic charges =     0.000000

                    Cartesian Multipole Moments
 -----------------------------------------------------------------
    Charge (ESU x 10^10)
                -0.0000
    Dipole Moment (Debye)
         X      -0.0036      Y      -0.0131      Z       0.0641
       Tot       0.0655
    Quadrupole Moments (Debye-Ang)
        XX     -12.1985     XY      -0.0759     YY     -12.2946
        XZ       0.0128     YZ       0.1373     ZZ     -15.6255

 Total job time:  151.30s(wall), 460.77s(cpu)
        *  Thank you very much for using Q-Chem.  Have a nice day.  *
