 Q-Chem 5.4 (devel), Q-Chem, Inc., Pleasanton, CA (2021)
 Q-Chem 5.4.1 for Intel X86 EM64T Linux

User input:
--------------------------------------------------------------
$comment
generated from CCJob.Templates
$end

$rem
sym_ignore = true
method = adc(2)
ee_states = 10
basis = cc-pVDZ
mem_static = 1024
mem_total = 40000
adc_davidson_maxiter = 900
adc_davidson_conv = 6
adc_print = 3
adc_prop_es = true
adc_prop_es2es = true
adc_prop_tpa = true
molden_format = True
state_analysis = true
print_orbitals = 15
gen_scfman = false
fde_export_density = true
fde_details = 3
$end

$molecule
0 1
H -0.021641107605569285 -0.2471043419075507 0.06712515341817539
C -1.0779123068000591 -0.5244165272998647 -0.002365580400151397
H -1.301104532694218 -1.5929221441929193 -0.07968536261765356
C -2.044760816800065 0.3938451744001358 0.006607387899847893
H -1.8214101798942193 1.4625975493070793 0.07993325188234597
H -3.1012286191055654 0.11628433939245522 -0.058803115881820814
$end
--------------------------------------------------------------

             Standard Nuclear Orientation (Angstroms)
    I     Atom           X                Y                Z
 ----------------------------------------------------------------
    1      H      -0.0216411076    -0.2471043419     0.0671251534
    2      C      -1.0779123068    -0.5244165273    -0.0023655804
    3      H      -1.3011045327    -1.5929221442    -0.0796853626
    4      C      -2.0447608168     0.3938451744     0.0066073879
    5      H      -1.8214101799     1.4625975493     0.0799332519
    6      H      -3.1012286191     0.1162843394    -0.0588031159
 ----------------------------------------------------------------

   10     -78.0396505636      3.68E-09 Convergence criterion met
 Total energy in the final basis set = -78.03965056
  Excited state 1 (singlet, A)                                     [converged]
  Term symbol:  2 (1) A                                     R^2 =  1.84600e-10
  Excitation energy:                                               8.731322 eV
  Excited state 2 (singlet, A)                                     [converged]
  Term symbol:  3 (1) A                                     R^2 =  7.15330e-11
  Excitation energy:                                               8.952817 eV
  Excited state 3 (singlet, A)                                     [converged]
  Term symbol:  4 (1) A                                     R^2 =  3.91478e-11
  Excitation energy:                                               9.141607 eV
  Excited state 4 (singlet, A)                                     [converged]
  Term symbol:  5 (1) A                                     R^2 =  1.21731e-11
  Excitation energy:                                               9.738268 eV
  Excited state 5 (singlet, A)                                     [converged]
  Term symbol:  6 (1) A                                     R^2 =  5.71245e-10
  Excitation energy:                                              10.158411 eV
  Excited state 6 (singlet, A)                                     [converged]
  Term symbol:  7 (1) A                                     R^2 =  1.85014e-09
  Excitation energy:                                              10.520803 eV
  Excited state 7 (singlet, A)                                     [converged]
  Term symbol:  8 (1) A                                     R^2 =  5.94096e-07
  Excitation energy:                                              11.433900 eV
  Excited state 8 (singlet, A)                                     [converged]
  Term symbol:  9 (1) A                                     R^2 =  1.21417e-07
  Excitation energy:                                              12.068231 eV
  Excited state 9 (singlet, A)                                     [converged]
  Term symbol:  10 (1) A                                    R^2 =  5.84053e-07
  Excitation energy:                                              12.346769 eV
  Excited state 10 (singlet, A)                                     [converged]
  Term symbol:  11 (1) A                                    R^2 =  9.05075e-07
  Excitation energy:                                              12.476843 eV
  Excitation energy:                                               0.221494 eV
  Excitation energy:                                               0.410285 eV
  Excitation energy:                                               0.188790 eV
  Excitation energy:                                               1.006945 eV
  Excitation energy:                                               0.785451 eV
  Excitation energy:                                               0.596661 eV
  Excitation energy:                                               1.427088 eV
  Excitation energy:                                               1.205594 eV
  Excitation energy:                                               1.016804 eV
  Excitation energy:                                               0.420143 eV
  Excitation energy:                                               1.789481 eV
  Excitation energy:                                               1.567987 eV
  Excitation energy:                                               1.379196 eV
  Excitation energy:                                               0.782536 eV
  Excitation energy:                                               0.362393 eV
  Excitation energy:                                               2.702578 eV
  Excitation energy:                                               2.481084 eV
  Excitation energy:                                               2.292293 eV
  Excitation energy:                                               1.695633 eV
  Excitation energy:                                               1.275490 eV
  Excitation energy:                                               0.913097 eV
  Excitation energy:                                               3.336909 eV
  Excitation energy:                                               3.115415 eV
  Excitation energy:                                               2.926624 eV
  Excitation energy:                                               2.329964 eV
  Excitation energy:                                               1.909821 eV
  Excitation energy:                                               1.547428 eV
  Excitation energy:                                               0.634331 eV
  Excitation energy:                                               3.615446 eV
  Excitation energy:                                               3.393952 eV
  Excitation energy:                                               3.205162 eV
  Excitation energy:                                               2.608501 eV
  Excitation energy:                                               2.188358 eV
  Excitation energy:                                               1.825965 eV
  Excitation energy:                                               0.912868 eV
  Excitation energy:                                               0.278537 eV
  Excitation energy:                                               3.745520 eV
  Excitation energy:                                               3.524026 eV
  Excitation energy:                                               3.335236 eV
  Excitation energy:                                               2.738575 eV
  Excitation energy:                                               2.318432 eV
  Excitation energy:                                               1.956039 eV
  Excitation energy:                                               1.042942 eV
  Excitation energy:                                               0.408611 eV
  Excitation energy:                                               0.130074 eV

                    Orbital Energies (a.u.)
 --------------------------------------------------------------

 Alpha MOs
 -- Occupied --
-11.2388 -11.2372  -1.0299  -0.7859  -0.6350  -0.5823  -0.4995  -0.3744

          Ground-State Mulliken Net Atomic Charges

     Atom                 Charge (a.u.)
  ----------------------------------------
      1 H                     0.052371
      2 C                    -0.104750
      3 H                     0.052381
      4 C                    -0.104752
      5 H                     0.052380
      6 H                     0.052370
  ----------------------------------------
  Sum of atomic charges =     0.000000

                    Cartesian Multipole Moments
 -----------------------------------------------------------------
    Charge (ESU x 10^10)
                -0.0000
    Dipole Moment (Debye)
         X      -0.0000      Y       0.0000      Z       0.0001
       Tot       0.0001
    Quadrupole Moments (Debye-Ang)
        XX     -12.2455     XY      -0.1052     YY     -12.2595
        XZ       0.1560     YZ       0.1986     ZZ     -15.6097

 Total job time:  118.44s(wall), 359.68s(cpu)
        *  Thank you very much for using Q-Chem.  Have a nice day.  *
