 Q-Chem 5.4 (devel), Q-Chem, Inc., Pleasanton, CA (2021)
 Q-Chem 5.4.1 for Intel X86 EM64T Linux

User input:
--------------------------------------------------------------
$comment
generated from CCJob.Templates
$end

$rem
sym_ignore = true
method = adc(2)
ee_states = 10
basis = cc-pVDZ
mem_static = 1024
mem_total = 40000
adc_davidson_maxiter = 900
adc_davidson_conv = 6
adc_print = 3
adc_prop_es = true
adc_prop_es2es = true
adc_prop_tpa = true
molden_format = True
state_analysis = true
print_orbitals = 15
gen_scfman = false
fde_export_density = true
fde_details = 3
$end

$molecule
0 1
H -0.0448278765 -0.2442097827 0.0636489606
C -1.0765972949 -0.5242748755 -0.0023551776
H -1.313264467 -1.5767591607 -0.0757276926
C -2.043634118 0.3926884087 0.0061254933
H -1.8137616575 1.4459188338 0.0804456828
H -3.085977293 0.114931858 -0.0593381042
$end
--------------------------------------------------------------

             Standard Nuclear Orientation (Angstroms)
    I     Atom           X                Y                Z
 ----------------------------------------------------------------
    1      H      -0.0448278765    -0.2442097827     0.0636489606
    2      C      -1.0765972949    -0.5242748755    -0.0023551776
    3      H      -1.3132644670    -1.5767591607    -0.0757276926
    4      C      -2.0436341180     0.3926884087     0.0061254933
    5      H      -1.8137616575     1.4459188338     0.0804456828
    6      H      -3.0859772930     0.1149318580    -0.0593381042
 ----------------------------------------------------------------

   11     -78.0398183785      8.11E-09 Convergence criterion met
 Total energy in the final basis set = -78.03981838
  Excited state 1 (singlet, A)                                     [converged]
  Term symbol:  2 (1) A                                     R^2 =  1.81340e-13
  Excitation energy:                                               8.736697 eV
  Excited state 2 (singlet, A)                                     [converged]
  Term symbol:  3 (1) A                                     R^2 =  2.59525e-13
  Excitation energy:                                               9.068698 eV
  Excited state 3 (singlet, A)                                     [converged]
  Term symbol:  4 (1) A                                     R^2 =  1.64050e-13
  Excitation energy:                                               9.177803 eV
  Excited state 4 (singlet, A)                                     [converged]
  Term symbol:  5 (1) A                                     R^2 =  4.59247e-13
  Excitation energy:                                               9.849492 eV
  Excited state 5 (singlet, A)                                     [converged]
  Term symbol:  6 (1) A                                     R^2 =  5.13916e-13
  Excitation energy:                                              10.220096 eV
  Excited state 6 (singlet, A)                                     [converged]
  Term symbol:  7 (1) A                                     R^2 =  3.77677e-13
  Excitation energy:                                              10.541401 eV
  Excited state 7 (singlet, A)                                     [converged]
  Term symbol:  8 (1) A                                     R^2 =  6.08469e-11
  Excitation energy:                                              11.578488 eV
  Excited state 8 (singlet, A)                                     [converged]
  Term symbol:  9 (1) A                                     R^2 =  1.80258e-11
  Excitation energy:                                              12.177507 eV
  Excited state 9 (singlet, A)                                     [converged]
  Term symbol:  10 (1) A                                    R^2 =  2.69549e-10
  Excitation energy:                                              12.427957 eV
  Excited state 10 (singlet, A)                                     [converged]
  Term symbol:  11 (1) A                                    R^2 =  6.83987e-07
  Excitation energy:                                              12.673638 eV
  Excitation energy:                                               0.332000 eV
  Excitation energy:                                               0.441106 eV
  Excitation energy:                                               0.109106 eV
  Excitation energy:                                               1.112795 eV
  Excitation energy:                                               0.780795 eV
  Excitation energy:                                               0.671689 eV
  Excitation energy:                                               1.483399 eV
  Excitation energy:                                               1.151398 eV
  Excitation energy:                                               1.042292 eV
  Excitation energy:                                               0.370603 eV
  Excitation energy:                                               1.804704 eV
  Excitation energy:                                               1.472703 eV
  Excitation energy:                                               1.363598 eV
  Excitation energy:                                               0.691909 eV
  Excitation energy:                                               0.321305 eV
  Excitation energy:                                               2.841791 eV
  Excitation energy:                                               2.509791 eV
  Excitation energy:                                               2.400685 eV
  Excitation energy:                                               1.728996 eV
  Excitation energy:                                               1.358393 eV
  Excitation energy:                                               1.037087 eV
  Excitation energy:                                               3.440809 eV
  Excitation energy:                                               3.108809 eV
  Excitation energy:                                               2.999703 eV
  Excitation energy:                                               2.328014 eV
  Excitation energy:                                               1.957411 eV
  Excitation energy:                                               1.636106 eV
  Excitation energy:                                               0.599018 eV
  Excitation energy:                                               3.691260 eV
  Excitation energy:                                               3.359259 eV
  Excitation energy:                                               3.250154 eV
  Excitation energy:                                               2.578465 eV
  Excitation energy:                                               2.207861 eV
  Excitation energy:                                               1.886556 eV
  Excitation energy:                                               0.849468 eV
  Excitation energy:                                               0.250450 eV
  Excitation energy:                                               3.936941 eV
  Excitation energy:                                               3.604941 eV
  Excitation energy:                                               3.495835 eV
  Excitation energy:                                               2.824146 eV
  Excitation energy:                                               2.453542 eV
  Excitation energy:                                               2.132237 eV
  Excitation energy:                                               1.095150 eV
  Excitation energy:                                               0.496132 eV
  Excitation energy:                                               0.245681 eV

                    Orbital Energies (a.u.)
 --------------------------------------------------------------

 Alpha MOs
 -- Occupied --
-11.2346 -11.2327  -1.0327  -0.7907  -0.6421  -0.5821  -0.5054  -0.3739

          Ground-State Mulliken Net Atomic Charges

     Atom                 Charge (a.u.)
  ----------------------------------------
      1 H                     0.045245
      2 C                    -0.089994
      3 H                     0.047357
      4 C                    -0.097128
      5 H                     0.047044
      6 H                     0.047476
  ----------------------------------------
  Sum of atomic charges =     0.000000

                    Cartesian Multipole Moments
 -----------------------------------------------------------------
    Charge (ESU x 10^10)
                 0.0000
    Dipole Moment (Debye)
         X       0.0022      Y       0.0026      Z       0.0017
       Tot       0.0038
    Quadrupole Moments (Debye-Ang)
        XX     -12.2261     XY      -0.0591     YY     -12.2624
        XZ       0.1519     YZ       0.1930     ZZ     -15.5289

 Total job time:  78.32s(wall), 201.60s(cpu)
        *  Thank you very much for using Q-Chem.  Have a nice day.  *
