 Q-Chem 5.4 (devel), Q-Chem, Inc., Pleasanton, CA (2021)
 Q-Chem 5.4.1 for Intel X86 EM64T Linux

User input:
--------------------------------------------------------------
$comment
generated from CCJob.Templates
$end

$rem
sym_ignore = true
method = adc(2)
ee_states = 10
basis = cc-pVDZ
mem_static = 1024
mem_total = 40000
adc_davidson_maxiter = 900
adc_davidson_conv = 6
adc_print = 3
adc_prop_es = true
adc_prop_es2es = true
adc_prop_tpa = true
molden_format = True
state_analysis = true
print_orbitals = 15
gen_scfman = false
fde_export_density = true
fde_details = 3
$end

$molecule
0 1
H -0.0348278765 -0.2442097827 0.0636489606
C -1.0765972949 -0.5242748755 -0.0023551776
H -1.313264467 -1.5767591607 -0.0757276926
C -2.0536341179999997 0.3926884087 0.0061254933
H -1.8137616575 1.4459188338 0.0804456828
H -3.085977293 0.114931858 -0.0593381042
$end
--------------------------------------------------------------

             Standard Nuclear Orientation (Angstroms)
    I     Atom           X                Y                Z
 ----------------------------------------------------------------
    1      H      -0.0348278765    -0.2442097827     0.0636489606
    2      C      -1.0765972949    -0.5242748755    -0.0023551776
    3      H      -1.3132644670    -1.5767591607    -0.0757276926
    4      C      -2.0536341180     0.3926884087     0.0061254933
    5      H      -1.8137616575     1.4459188338     0.0804456828
    6      H      -3.0859772930     0.1149318580    -0.0593381042
 ----------------------------------------------------------------

   11     -78.0395073380      8.30E-09 Convergence criterion met
 Total energy in the final basis set = -78.03950734
  Excited state 1 (singlet, A)                                     [converged]
  Term symbol:  2 (1) A                                     R^2 =  9.14884e-14
  Excitation energy:                                               8.674116 eV
  Excited state 2 (singlet, A)                                     [converged]
  Term symbol:  3 (1) A                                     R^2 =  1.71007e-13
  Excitation energy:                                               9.054254 eV
  Excited state 3 (singlet, A)                                     [converged]
  Term symbol:  4 (1) A                                     R^2 =  1.78933e-13
  Excitation energy:                                               9.139937 eV
  Excited state 4 (singlet, A)                                     [converged]
  Term symbol:  5 (1) A                                     R^2 =  9.56685e-14
  Excitation energy:                                               9.830454 eV
  Excited state 5 (singlet, A)                                     [converged]
  Term symbol:  6 (1) A                                     R^2 =  9.03613e-14
  Excitation energy:                                              10.162655 eV
  Excited state 6 (singlet, A)                                     [converged]
  Term symbol:  7 (1) A                                     R^2 =  2.14114e-13
  Excitation energy:                                              10.483296 eV
  Excited state 7 (singlet, A)                                     [converged]
  Term symbol:  8 (1) A                                     R^2 =  5.62915e-13
  Excitation energy:                                              11.596946 eV
  Excited state 8 (singlet, A)                                     [converged]
  Term symbol:  9 (1) A                                     R^2 =  4.04489e-13
  Excitation energy:                                              12.127255 eV
  Excited state 9 (singlet, A)                                     [converged]
  Term symbol:  10 (1) A                                    R^2 =  3.56744e-12
  Excitation energy:                                              12.378561 eV
  Excited state 10 (singlet, A)                                     [converged]
  Term symbol:  11 (1) A                                    R^2 =  7.37598e-07
  Excitation energy:                                              12.706270 eV
  Excitation energy:                                               0.380138 eV
  Excitation energy:                                               0.465820 eV
  Excitation energy:                                               0.085683 eV
  Excitation energy:                                               1.156338 eV
  Excitation energy:                                               0.776200 eV
  Excitation energy:                                               0.690517 eV
  Excitation energy:                                               1.488539 eV
  Excitation energy:                                               1.108401 eV
  Excitation energy:                                               1.022718 eV
  Excitation energy:                                               0.332201 eV
  Excitation energy:                                               1.809180 eV
  Excitation energy:                                               1.429042 eV
  Excitation energy:                                               1.343360 eV
  Excitation energy:                                               0.652842 eV
  Excitation energy:                                               0.320641 eV
  Excitation energy:                                               2.922830 eV
  Excitation energy:                                               2.542692 eV
  Excitation energy:                                               2.457009 eV
  Excitation energy:                                               1.766492 eV
  Excitation energy:                                               1.434291 eV
  Excitation energy:                                               1.113650 eV
  Excitation energy:                                               3.453139 eV
  Excitation energy:                                               3.073001 eV
  Excitation energy:                                               2.987318 eV
  Excitation energy:                                               2.296801 eV
  Excitation energy:                                               1.964600 eV
  Excitation energy:                                               1.643959 eV
  Excitation energy:                                               0.530309 eV
  Excitation energy:                                               3.704445 eV
  Excitation energy:                                               3.324307 eV
  Excitation energy:                                               3.238625 eV
  Excitation energy:                                               2.548107 eV
  Excitation energy:                                               2.215906 eV
  Excitation energy:                                               1.895265 eV
  Excitation energy:                                               0.781615 eV
  Excitation energy:                                               0.251306 eV
  Excitation energy:                                               4.032153 eV
  Excitation energy:                                               3.652016 eV
  Excitation energy:                                               3.566333 eV
  Excitation energy:                                               2.875816 eV
  Excitation energy:                                               2.543615 eV
  Excitation energy:                                               2.222974 eV
  Excitation energy:                                               1.109324 eV
  Excitation energy:                                               0.579015 eV
  Excitation energy:                                               0.327708 eV

                    Orbital Energies (a.u.)
 --------------------------------------------------------------

 Alpha MOs
 -- Occupied --
-11.2359 -11.2341  -1.0305  -0.7910  -0.6415  -0.5804  -0.5066  -0.3722

          Ground-State Mulliken Net Atomic Charges

     Atom                 Charge (a.u.)
  ----------------------------------------
      1 H                     0.048902
      2 C                    -0.098414
      3 H                     0.047805
      4 C                    -0.092577
      5 H                     0.047981
      6 H                     0.046304
  ----------------------------------------
  Sum of atomic charges =     0.000000

                    Cartesian Multipole Moments
 -----------------------------------------------------------------
    Charge (ESU x 10^10)
                 0.0000
    Dipole Moment (Debye)
         X      -0.0037      Y      -0.0016      Z       0.0002
       Tot       0.0041
    Quadrupole Moments (Debye-Ang)
        XX     -12.1716     XY      -0.0449     YY     -12.2916
        XZ       0.1576     YZ       0.1933     ZZ     -15.5606

 Total job time:  72.26s(wall), 199.17s(cpu)
        *  Thank you very much for using Q-Chem.  Have a nice day.  *
