 Q-Chem 5.4 (devel), Q-Chem, Inc., Pleasanton, CA (2021)
 Q-Chem 5.4.1 for Intel X86 EM64T Linux

User input:
--------------------------------------------------------------
$comment
generated from CCJob.Templates
$end

$rem
sym_ignore = true
method = adc(2)
ee_states = 10
basis = cc-pVDZ
mem_static = 1024
mem_total = 40000
adc_davidson_maxiter = 900
adc_davidson_conv = 6
adc_print = 3
adc_prop_es = true
adc_prop_es2es = true
adc_prop_tpa = true
molden_format = True
state_analysis = true
print_orbitals = 15
gen_scfman = false
fde_export_density = true
fde_details = 3
$end

$molecule
0 1
H -0.0233997402023617 -0.24749753006933714 0.06500615326074254
C -1.0773753586257588 -0.524929891466155 -0.0023678324015644204
H -1.300774984561076 -1.5911610715885365 -0.07756202645646412
C -2.045295424974162 0.39435369456607045 0.006614791901570923
H -1.821934900038812 1.4605982886889421 0.08178889195650313
H -3.0992828944980233 0.11693243156922399 -0.060680867960804956
$end
--------------------------------------------------------------

             Standard Nuclear Orientation (Angstroms)
    I     Atom           X                Y                Z
 ----------------------------------------------------------------
    1      H      -0.0233997402    -0.2474975301     0.0650061533
    2      C      -1.0773753586    -0.5249298915    -0.0023678324
    3      H      -1.3007749846    -1.5911610716    -0.0775620265
    4      C      -2.0452954250     0.3943536946     0.0066147919
    5      H      -1.8219349000     1.4605982887     0.0817888920
    6      H      -3.0992828945     0.1169324316    -0.0606808680
 ----------------------------------------------------------------

   10     -78.0397222443      3.03E-09 Convergence criterion met
 Total energy in the final basis set = -78.03972224
  Excited state 1 (singlet, A)                                     [converged]
  Term symbol:  2 (1) A                                     R^2 =  1.17493e-09
  Excitation energy:                                               8.718423 eV
  Excited state 2 (singlet, A)                                     [converged]
  Term symbol:  3 (1) A                                     R^2 =  4.83432e-12
  Excitation energy:                                               8.962903 eV
  Excited state 3 (singlet, A)                                     [converged]
  Term symbol:  4 (1) A                                     R^2 =  2.71939e-11
  Excitation energy:                                               9.142822 eV
  Excited state 4 (singlet, A)                                     [converged]
  Term symbol:  5 (1) A                                     R^2 =  4.54370e-12
  Excitation energy:                                               9.751067 eV
  Excited state 5 (singlet, A)                                     [converged]
  Term symbol:  6 (1) A                                     R^2 =  7.61976e-11
  Excitation energy:                                              10.159430 eV
  Excited state 6 (singlet, A)                                     [converged]
  Term symbol:  7 (1) A                                     R^2 =  3.75439e-10
  Excitation energy:                                              10.511871 eV
  Excited state 7 (singlet, A)                                     [converged]
  Term symbol:  8 (1) A                                     R^2 =  8.43325e-07
  Excitation energy:                                              11.459793 eV
  Excited state 8 (singlet, A)                                     [converged]
  Term symbol:  9 (1) A                                     R^2 =  1.78897e-08
  Excitation energy:                                              12.069496 eV
  Excited state 9 (singlet, A)                                     [converged]
  Term symbol:  10 (1) A                                    R^2 =  4.32410e-08
  Excitation energy:                                              12.345279 eV
  Excited state 10 (singlet, A)                                     [converged]
  Term symbol:  11 (1) A                                    R^2 =  8.08535e-07
  Excitation energy:                                              12.511557 eV
  Excitation energy:                                               0.244480 eV
  Excitation energy:                                               0.424399 eV
  Excitation energy:                                               0.179919 eV
  Excitation energy:                                               1.032644 eV
  Excitation energy:                                               0.788164 eV
  Excitation energy:                                               0.608245 eV
  Excitation energy:                                               1.441007 eV
  Excitation energy:                                               1.196527 eV
  Excitation energy:                                               1.016608 eV
  Excitation energy:                                               0.408363 eV
  Excitation energy:                                               1.793449 eV
  Excitation energy:                                               1.548968 eV
  Excitation energy:                                               1.369050 eV
  Excitation energy:                                               0.760805 eV
  Excitation energy:                                               0.352442 eV
  Excitation energy:                                               2.741370 eV
  Excitation energy:                                               2.496890 eV
  Excitation energy:                                               2.316971 eV
  Excitation energy:                                               1.708726 eV
  Excitation energy:                                               1.300363 eV
  Excitation energy:                                               0.947921 eV
  Excitation energy:                                               3.351074 eV
  Excitation energy:                                               3.106593 eV
  Excitation energy:                                               2.926674 eV
  Excitation energy:                                               2.318429 eV
  Excitation energy:                                               1.910066 eV
  Excitation energy:                                               1.557625 eV
  Excitation energy:                                               0.609704 eV
  Excitation energy:                                               3.626857 eV
  Excitation energy:                                               3.382376 eV
  Excitation energy:                                               3.202457 eV
  Excitation energy:                                               2.594212 eV
  Excitation energy:                                               2.185849 eV
  Excitation energy:                                               1.833408 eV
  Excitation energy:                                               0.885487 eV
  Excitation energy:                                               0.275783 eV
  Excitation energy:                                               3.793134 eV
  Excitation energy:                                               3.548654 eV
  Excitation energy:                                               3.368735 eV
  Excitation energy:                                               2.760490 eV
  Excitation energy:                                               2.352127 eV
  Excitation energy:                                               1.999685 eV
  Excitation energy:                                               1.051764 eV
  Excitation energy:                                               0.442060 eV
  Excitation energy:                                               0.166277 eV

                    Orbital Energies (a.u.)
 --------------------------------------------------------------

 Alpha MOs
 -- Occupied --
-11.2385 -11.2368  -1.0298  -0.7869  -0.6357  -0.5823  -0.5005  -0.3740

          Ground-State Mulliken Net Atomic Charges

     Atom                 Charge (a.u.)
  ----------------------------------------
      1 H                     0.051751
      2 C                    -0.103504
      3 H                     0.051759
      4 C                    -0.103514
      5 H                     0.051758
      6 H                     0.051749
  ----------------------------------------
  Sum of atomic charges =     0.000000

                    Cartesian Multipole Moments
 -----------------------------------------------------------------
    Charge (ESU x 10^10)
                -0.0000
    Dipole Moment (Debye)
         X      -0.0000      Y       0.0000      Z       0.0000
       Tot       0.0000
    Quadrupole Moments (Debye-Ang)
        XX     -12.2411     XY      -0.1067     YY     -12.2552
        XZ       0.1559     YZ       0.1984     ZZ     -15.6040

 Total job time:  113.18s(wall), 340.41s(cpu)
        *  Thank you very much for using Q-Chem.  Have a nice day.  *
