 Q-Chem 5.4 (devel), Q-Chem, Inc., Pleasanton, CA (2021)
 Q-Chem 5.4.1 for Intel X86 EM64T Linux

User input:
--------------------------------------------------------------
$comment
generated from CCJob.Templates
$end

$rem
sym_ignore = true
method = adc(2)
ee_states = 10
basis = cc-pVDZ
mem_static = 1024
mem_total = 40000
adc_davidson_maxiter = 900
adc_davidson_conv = 6
adc_print = 3
adc_prop_es = true
adc_prop_es2es = true
adc_prop_tpa = true
molden_format = True
state_analysis = true
print_orbitals = 15
gen_scfman = false
fde_export_density = true
fde_details = 3
$end

$molecule
0 1
H -0.0348278765 -0.2542097827 0.0636489606
C -1.0765972949 -0.5242748755 -0.0023551776
H -1.313264467 -1.5767591607 -0.0757276926
C -2.043634118 0.3926884087 0.0061254933
H -1.8137616575 1.4459188338 0.0804456828
H -3.085977293 0.114931858 -0.0593381042
$end
--------------------------------------------------------------

             Standard Nuclear Orientation (Angstroms)
    I     Atom           X                Y                Z
 ----------------------------------------------------------------
    1      H      -0.0348278765    -0.2542097827     0.0636489606
    2      C      -1.0765972949    -0.5242748755    -0.0023551776
    3      H      -1.3132644670    -1.5767591607    -0.0757276926
    4      C      -2.0436341180     0.3926884087     0.0061254933
    5      H      -1.8137616575     1.4459188338     0.0804456828
    6      H      -3.0859772930     0.1149318580    -0.0593381042
 ----------------------------------------------------------------

   11     -78.0399221907      3.96E-09 Convergence criterion met
 Total energy in the final basis set = -78.03992219
  Excited state 1 (singlet, A)                                     [converged]
  Term symbol:  2 (1) A                                     R^2 =  3.54441e-13
  Excitation energy:                                               8.736359 eV
  Excited state 2 (singlet, A)                                     [converged]
  Term symbol:  3 (1) A                                     R^2 =  2.67749e-13
  Excitation energy:                                               9.048755 eV
  Excited state 3 (singlet, A)                                     [converged]
  Term symbol:  4 (1) A                                     R^2 =  7.06988e-13
  Excitation energy:                                               9.179549 eV
  Excited state 4 (singlet, A)                                     [converged]
  Term symbol:  5 (1) A                                     R^2 =  4.19429e-13
  Excitation energy:                                               9.837014 eV
  Excited state 5 (singlet, A)                                     [converged]
  Term symbol:  6 (1) A                                     R^2 =  3.65456e-13
  Excitation energy:                                              10.218988 eV
  Excited state 6 (singlet, A)                                     [converged]
  Term symbol:  7 (1) A                                     R^2 =  5.40947e-13
  Excitation energy:                                              10.542660 eV
  Excited state 7 (singlet, A)                                     [converged]
  Term symbol:  8 (1) A                                     R^2 =  4.82592e-11
  Excitation energy:                                              11.560789 eV
  Excited state 8 (singlet, A)                                     [converged]
  Term symbol:  9 (1) A                                     R^2 =  2.63312e-11
  Excitation energy:                                              12.160845 eV
  Excited state 9 (singlet, A)                                     [converged]
  Term symbol:  10 (1) A                                    R^2 =  2.90991e-10
  Excitation energy:                                              12.413588 eV
  Excited state 10 (singlet, A)                                     [converged]
  Term symbol:  11 (1) A                                    R^2 =  9.47616e-07
  Excitation energy:                                              12.646897 eV
  Excitation energy:                                               0.312396 eV
  Excitation energy:                                               0.443190 eV
  Excitation energy:                                               0.130795 eV
  Excitation energy:                                               1.100655 eV
  Excitation energy:                                               0.788260 eV
  Excitation energy:                                               0.657465 eV
  Excitation energy:                                               1.482629 eV
  Excitation energy:                                               1.170233 eV
  Excitation energy:                                               1.039438 eV
  Excitation energy:                                               0.381974 eV
  Excitation energy:                                               1.806300 eV
  Excitation energy:                                               1.493905 eV
  Excitation energy:                                               1.363110 eV
  Excitation energy:                                               0.705645 eV
  Excitation energy:                                               0.323672 eV
  Excitation energy:                                               2.824430 eV
  Excitation energy:                                               2.512034 eV
  Excitation energy:                                               2.381240 eV
  Excitation energy:                                               1.723775 eV
  Excitation energy:                                               1.341801 eV
  Excitation energy:                                               1.018130 eV
  Excitation energy:                                               3.424486 eV
  Excitation energy:                                               3.112090 eV
  Excitation energy:                                               2.981295 eV
  Excitation energy:                                               2.323830 eV
  Excitation energy:                                               1.941857 eV
  Excitation energy:                                               1.618185 eV
  Excitation energy:                                               0.600056 eV
  Excitation energy:                                               3.677229 eV
  Excitation energy:                                               3.364833 eV
  Excitation energy:                                               3.234039 eV
  Excitation energy:                                               2.576574 eV
  Excitation energy:                                               2.194600 eV
  Excitation energy:                                               1.870929 eV
  Excitation energy:                                               0.852799 eV
  Excitation energy:                                               0.252743 eV
  Excitation energy:                                               3.910538 eV
  Excitation energy:                                               3.598143 eV
  Excitation energy:                                               3.467348 eV
  Excitation energy:                                               2.809883 eV
  Excitation energy:                                               2.427909 eV
  Excitation energy:                                               2.104238 eV
  Excitation energy:                                               1.086108 eV
  Excitation energy:                                               0.486053 eV
  Excitation energy:                                               0.233309 eV

                    Orbital Energies (a.u.)
 --------------------------------------------------------------

 Alpha MOs
 -- Occupied --
-11.2351 -11.2334  -1.0323  -0.7904  -0.6409  -0.5827  -0.5045  -0.3740

          Ground-State Mulliken Net Atomic Charges

     Atom                 Charge (a.u.)
  ----------------------------------------
      1 H                     0.047407
      2 C                    -0.094303
      3 H                     0.047162
      4 C                    -0.095436
      5 H                     0.047302
      6 H                     0.047868
  ----------------------------------------
  Sum of atomic charges =     0.000000

                    Cartesian Multipole Moments
 -----------------------------------------------------------------
    Charge (ESU x 10^10)
                -0.0000
    Dipole Moment (Debye)
         X       0.0009      Y      -0.0001      Z       0.0016
       Tot       0.0018
    Quadrupole Moments (Debye-Ang)
        XX     -12.2073     XY      -0.0738     YY     -12.2744
        XZ       0.1522     YZ       0.1918     ZZ     -15.5374

 Total job time:  69.49s(wall), 194.59s(cpu)
        *  Thank you very much for using Q-Chem.  Have a nice day.  *
