 Q-Chem 5.4 (devel), Q-Chem, Inc., Pleasanton, CA (2021)
 Q-Chem 5.4.1 for Intel X86 EM64T Linux

User input:
--------------------------------------------------------------
$comment
generated from CCJob.Templates
$end

$rem
sym_ignore = true
method = adc(2)
ee_states = 10
basis = cc-pVDZ
mem_static = 1024
mem_total = 40000
adc_davidson_maxiter = 900
adc_davidson_conv = 6
adc_print = 3
adc_prop_es = true
adc_prop_es2es = true
adc_prop_tpa = true
molden_format = True
state_analysis = true
print_orbitals = 15
gen_scfman = false
fde_export_density = true
fde_details = 3
$end

$molecule
0 1
H -0.0348278765 -0.2442097827 0.0636489606
C -1.0765972949 -0.5242748755 -0.0023551776
H -1.313264467 -1.5767591607 -0.0757276926
C -2.043634118 0.3926884087 -0.0338745067
H -1.8137616575 1.4459188338 0.0804456828
H -3.085977293 0.114931858 -0.0593381042
$end
--------------------------------------------------------------

             Standard Nuclear Orientation (Angstroms)
    I     Atom           X                Y                Z
 ----------------------------------------------------------------
    1      H      -0.0348278765    -0.2442097827     0.0636489606
    2      C      -1.0765972949    -0.5242748755    -0.0023551776
    3      H      -1.3132644670    -1.5767591607    -0.0757276926
    4      C      -2.0436341180     0.3926884087    -0.0338745067
    5      H      -1.8137616575     1.4459188338     0.0804456828
    6      H      -3.0859772930     0.1149318580    -0.0593381042
 ----------------------------------------------------------------

   11     -78.0395193662      6.87E-09 Convergence criterion met
 Total energy in the final basis set = -78.03951937
  Excited state 1 (singlet, A)                                     [converged]
  Term symbol:  2 (1) A                                     R^2 =  2.17053e-13
  Excitation energy:                                               8.726298 eV
  Excited state 2 (singlet, A)                                     [converged]
  Term symbol:  3 (1) A                                     R^2 =  2.72261e-13
  Excitation energy:                                               9.036224 eV
  Excited state 3 (singlet, A)                                     [converged]
  Term symbol:  4 (1) A                                     R^2 =  1.83805e-13
  Excitation energy:                                               9.172538 eV
  Excited state 4 (singlet, A)                                     [converged]
  Term symbol:  5 (1) A                                     R^2 =  2.06971e-13
  Excitation energy:                                               9.832544 eV
  Excited state 5 (singlet, A)                                     [converged]
  Term symbol:  6 (1) A                                     R^2 =  4.19132e-13
  Excitation energy:                                              10.204853 eV
  Excited state 6 (singlet, A)                                     [converged]
  Term symbol:  7 (1) A                                     R^2 =  5.65640e-13
  Excitation energy:                                              10.528227 eV
  Excited state 7 (singlet, A)                                     [converged]
  Term symbol:  8 (1) A                                     R^2 =  1.31142e-10
  Excitation energy:                                              11.548509 eV
  Excited state 8 (singlet, A)                                     [converged]
  Term symbol:  9 (1) A                                     R^2 =  7.46161e-09
  Excitation energy:                                              12.154985 eV
  Excited state 9 (singlet, A)                                     [converged]
  Term symbol:  10 (1) A                                    R^2 =  4.56432e-08
  Excitation energy:                                              12.407947 eV
  Excited state 10 (singlet, A)                                     [converged]
  Term symbol:  11 (1) A                                    R^2 =  5.44710e-07
  Excitation energy:                                              12.637629 eV
  Excitation energy:                                               0.309926 eV
  Excitation energy:                                               0.446239 eV
  Excitation energy:                                               0.136314 eV
  Excitation energy:                                               1.106245 eV
  Excitation energy:                                               0.796320 eV
  Excitation energy:                                               0.660006 eV
  Excitation energy:                                               1.478555 eV
  Excitation energy:                                               1.168629 eV
  Excitation energy:                                               1.032315 eV
  Excitation energy:                                               0.372309 eV
  Excitation energy:                                               1.801928 eV
  Excitation energy:                                               1.492002 eV
  Excitation energy:                                               1.355689 eV
  Excitation energy:                                               0.695683 eV
  Excitation energy:                                               0.323373 eV
  Excitation energy:                                               2.822210 eV
  Excitation energy:                                               2.512284 eV
  Excitation energy:                                               2.375971 eV
  Excitation energy:                                               1.715965 eV
  Excitation energy:                                               1.343656 eV
  Excitation energy:                                               1.020282 eV
  Excitation energy:                                               3.428686 eV
  Excitation energy:                                               3.118761 eV
  Excitation energy:                                               2.982447 eV
  Excitation energy:                                               2.322441 eV
  Excitation energy:                                               1.950132 eV
  Excitation energy:                                               1.626758 eV
  Excitation energy:                                               0.606476 eV
  Excitation energy:                                               3.681649 eV
  Excitation energy:                                               3.371723 eV
  Excitation energy:                                               3.235410 eV
  Excitation energy:                                               2.575404 eV
  Excitation energy:                                               2.203094 eV
  Excitation energy:                                               1.879721 eV
  Excitation energy:                                               0.859439 eV
  Excitation energy:                                               0.252963 eV
  Excitation energy:                                               3.911330 eV
  Excitation energy:                                               3.601404 eV
  Excitation energy:                                               3.465091 eV
  Excitation energy:                                               2.805085 eV
  Excitation energy:                                               2.432775 eV
  Excitation energy:                                               2.109402 eV
  Excitation energy:                                               1.089120 eV
  Excitation energy:                                               0.482644 eV
  Excitation energy:                                               0.229681 eV

                    Orbital Energies (a.u.)
 --------------------------------------------------------------

 Alpha MOs
 -- Occupied --
-11.2353 -11.2336  -1.0322  -0.7897  -0.6409  -0.5817  -0.5043  -0.3740

          Ground-State Mulliken Net Atomic Charges

     Atom                 Charge (a.u.)
  ----------------------------------------
      1 H                     0.048413
      2 C                    -0.094440
      3 H                     0.047664
      4 C                    -0.097197
      5 H                     0.047961
      6 H                     0.047597
  ----------------------------------------
  Sum of atomic charges =     0.000000

                    Cartesian Multipole Moments
 -----------------------------------------------------------------
    Charge (ESU x 10^10)
                 0.0000
    Dipole Moment (Debye)
         X      -0.0012      Y      -0.0072      Z       0.0568
       Tot       0.0573
    Quadrupole Moments (Debye-Ang)
        XX     -12.2051     XY      -0.0434     YY     -12.2888
        XZ       0.0420     YZ       0.2125     ZZ     -15.5424

 Total job time:  87.74s(wall), 297.08s(cpu)
        *  Thank you very much for using Q-Chem.  Have a nice day.  *
