 Q-Chem 5.4 (devel), Q-Chem, Inc., Pleasanton, CA (2021)
 Q-Chem 5.4.1 for Intel X86 EM64T Linux

User input:
--------------------------------------------------------------
$comment
generated from CCJob.Templates
$end

$rem
sym_ignore = true
method = adc(2)
ee_states = 10
basis = cc-pVDZ
mem_static = 1024
mem_total = 40000
adc_davidson_maxiter = 900
adc_davidson_conv = 6
adc_print = 3
adc_prop_es = true
adc_prop_es2es = true
adc_prop_tpa = true
molden_format = True
state_analysis = true
print_orbitals = 15
gen_scfman = false
fde_export_density = true
fde_details = 3
$end

$molecule
0 1
H -0.0348278765 -0.2442097827 0.0636489606
C -1.0765972949 -0.5242748755 -0.0023551776
H -1.313264467 -1.5767591607 -0.08572769259999999
C -2.043634118 0.3926884087 0.0061254933
H -1.8137616575 1.4459188338 0.0804456828
H -3.085977293 0.114931858 -0.0593381042
$end
--------------------------------------------------------------

             Standard Nuclear Orientation (Angstroms)
    I     Atom           X                Y                Z
 ----------------------------------------------------------------
    1      H      -0.0348278765    -0.2442097827     0.0636489606
    2      C      -1.0765972949    -0.5242748755    -0.0023551776
    3      H      -1.3132644670    -1.5767591607    -0.0857276926
    4      C      -2.0436341180     0.3926884087     0.0061254933
    5      H      -1.8137616575     1.4459188338     0.0804456828
    6      H      -3.0859772930     0.1149318580    -0.0593381042
 ----------------------------------------------------------------

   11     -78.0399237805      3.77E-09 Convergence criterion met
 Total energy in the final basis set = -78.03992378
  Excited state 1 (singlet, A)                                     [converged]
  Term symbol:  2 (1) A                                     R^2 =  3.21310e-13
  Excitation energy:                                               8.736642 eV
  Excited state 2 (singlet, A)                                     [converged]
  Term symbol:  3 (1) A                                     R^2 =  4.47583e-13
  Excitation energy:                                               9.053977 eV
  Excited state 3 (singlet, A)                                     [converged]
  Term symbol:  4 (1) A                                     R^2 =  8.30054e-13
  Excitation energy:                                               9.169807 eV
  Excited state 4 (singlet, A)                                     [converged]
  Term symbol:  5 (1) A                                     R^2 =  4.16581e-13
  Excitation energy:                                               9.832250 eV
  Excited state 5 (singlet, A)                                     [converged]
  Term symbol:  6 (1) A                                     R^2 =  3.41360e-13
  Excitation energy:                                              10.211224 eV
  Excited state 6 (singlet, A)                                     [converged]
  Term symbol:  7 (1) A                                     R^2 =  2.20875e-13
  Excitation energy:                                              10.535097 eV
  Excited state 7 (singlet, A)                                     [converged]
  Term symbol:  8 (1) A                                     R^2 =  1.86309e-11
  Excitation energy:                                              11.555283 eV
  Excited state 8 (singlet, A)                                     [converged]
  Term symbol:  9 (1) A                                     R^2 =  3.94048e-10
  Excitation energy:                                              12.164772 eV
  Excited state 9 (singlet, A)                                     [converged]
  Term symbol:  10 (1) A                                    R^2 =  6.91723e-09
  Excitation energy:                                              12.416567 eV
  Excited state 10 (singlet, A)                                     [converged]
  Term symbol:  11 (1) A                                    R^2 =  8.30232e-07
  Excitation energy:                                              12.643954 eV
  Excitation energy:                                               0.317335 eV
  Excitation energy:                                               0.433165 eV
  Excitation energy:                                               0.115830 eV
  Excitation energy:                                               1.095608 eV
  Excitation energy:                                               0.778273 eV
  Excitation energy:                                               0.662443 eV
  Excitation energy:                                               1.474582 eV
  Excitation energy:                                               1.157247 eV
  Excitation energy:                                               1.041417 eV
  Excitation energy:                                               0.378974 eV
  Excitation energy:                                               1.798455 eV
  Excitation energy:                                               1.481120 eV
  Excitation energy:                                               1.365290 eV
  Excitation energy:                                               0.702847 eV
  Excitation energy:                                               0.323873 eV
  Excitation energy:                                               2.818641 eV
  Excitation energy:                                               2.501307 eV
  Excitation energy:                                               2.385476 eV
  Excitation energy:                                               1.723034 eV
  Excitation energy:                                               1.344059 eV
  Excitation energy:                                               1.020187 eV
  Excitation energy:                                               3.428130 eV
  Excitation energy:                                               3.110795 eV
  Excitation energy:                                               2.994965 eV
  Excitation energy:                                               2.332522 eV
  Excitation energy:                                               1.953548 eV
  Excitation energy:                                               1.629675 eV
  Excitation energy:                                               0.609488 eV
  Excitation energy:                                               3.679925 eV
  Excitation energy:                                               3.362590 eV
  Excitation energy:                                               3.246760 eV
  Excitation energy:                                               2.584317 eV
  Excitation energy:                                               2.205343 eV
  Excitation energy:                                               1.881470 eV
  Excitation energy:                                               0.861284 eV
  Excitation energy:                                               0.251795 eV
  Excitation energy:                                               3.907312 eV
  Excitation energy:                                               3.589977 eV
  Excitation energy:                                               3.474147 eV
  Excitation energy:                                               2.811704 eV
  Excitation energy:                                               2.432730 eV
  Excitation energy:                                               2.108857 eV
  Excitation energy:                                               1.088670 eV
  Excitation energy:                                               0.479182 eV
  Excitation energy:                                               0.227387 eV

                    Orbital Energies (a.u.)
 --------------------------------------------------------------

 Alpha MOs
 -- Occupied --
-11.2351 -11.2335  -1.0323  -0.7897  -0.6411  -0.5819  -0.5046  -0.3740

          Ground-State Mulliken Net Atomic Charges

     Atom                 Charge (a.u.)
  ----------------------------------------
      1 H                     0.048164
      2 C                    -0.095488
      3 H                     0.047866
      4 C                    -0.095405
      5 H                     0.047194
      6 H                     0.047669
  ----------------------------------------
  Sum of atomic charges =     0.000000

                    Cartesian Multipole Moments
 -----------------------------------------------------------------
    Charge (ESU x 10^10)
                -0.0000
    Dipole Moment (Debye)
         X      -0.0016      Y       0.0026      Z      -0.0057
       Tot       0.0065
    Quadrupole Moments (Debye-Ang)
        XX     -12.2141     XY      -0.0597     YY     -12.2706
        XZ       0.1631     YZ       0.2064     ZZ     -15.5405

 Total job time:  69.72s(wall), 193.75s(cpu)
        *  Thank you very much for using Q-Chem.  Have a nice day.  *
