 Q-Chem 5.4 (devel), Q-Chem, Inc., Pleasanton, CA (2021)
 Q-Chem 5.4.1 for Intel X86 EM64T Linux

User input:
--------------------------------------------------------------
$comment
generated from CCJob.Templates
$end

$rem
sym_ignore = true
method = adc(2)
ee_states = 10
basis = cc-pVDZ
mem_static = 1024
mem_total = 40000
adc_davidson_maxiter = 900
adc_davidson_conv = 6
adc_print = 3
adc_prop_es = true
adc_prop_es2es = true
adc_prop_tpa = true
molden_format = True
state_analysis = true
print_orbitals = 15
gen_scfman = false
fde_export_density = true
fde_details = 3
$end

$molecule
0 1
H -0.0348278765 -0.2442097827 0.0636489606
C -1.0765972949 -0.5242748755 -0.0023551776
H -1.273264467 -1.5767591607 -0.0757276926
C -2.043634118 0.3926884087 0.0061254933
H -1.8137616575 1.4459188338 0.0804456828
H -3.085977293 0.114931858 -0.0593381042
$end
--------------------------------------------------------------

             Standard Nuclear Orientation (Angstroms)
    I     Atom           X                Y                Z
 ----------------------------------------------------------------
    1      H      -0.0348278765    -0.2442097827     0.0636489606
    2      C      -1.0765972949    -0.5242748755    -0.0023551776
    3      H      -1.2732644670    -1.5767591607    -0.0757276926
    4      C      -2.0436341180     0.3926884087     0.0061254933
    5      H      -1.8137616575     1.4459188338     0.0804456828
    6      H      -3.0859772930     0.1149318580    -0.0593381042
 ----------------------------------------------------------------

   11     -78.0398240676      8.03E-09 Convergence criterion met
 Total energy in the final basis set = -78.03982407
  Excited state 1 (singlet, A)                                     [converged]
  Term symbol:  2 (1) A                                     R^2 =  8.94082e-14
  Excitation energy:                                               8.734043 eV
  Excited state 2 (singlet, A)                                     [converged]
  Term symbol:  3 (1) A                                     R^2 =  7.81379e-14
  Excitation energy:                                               9.028961 eV
  Excited state 3 (singlet, A)                                     [converged]
  Term symbol:  4 (1) A                                     R^2 =  1.66855e-13
  Excitation energy:                                               9.202908 eV
  Excited state 4 (singlet, A)                                     [converged]
  Term symbol:  5 (1) A                                     R^2 =  6.71585e-14
  Excitation energy:                                               9.844985 eV
  Excited state 5 (singlet, A)                                     [converged]
  Term symbol:  6 (1) A                                     R^2 =  1.23653e-13
  Excitation energy:                                              10.233479 eV
  Excited state 6 (singlet, A)                                     [converged]
  Term symbol:  7 (1) A                                     R^2 =  3.26356e-13
  Excitation energy:                                              10.563510 eV
  Excited state 7 (singlet, A)                                     [converged]
  Term symbol:  8 (1) A                                     R^2 =  1.16733e-10
  Excitation energy:                                              11.566420 eV
  Excited state 8 (singlet, A)                                     [converged]
  Term symbol:  9 (1) A                                     R^2 =  8.10709e-11
  Excitation energy:                                              12.142918 eV
  Excited state 9 (singlet, A)                                     [converged]
  Term symbol:  10 (1) A                                    R^2 =  1.03042e-09
  Excitation energy:                                              12.402946 eV
  Excited state 10 (singlet, A)                                     [converged]
  Term symbol:  11 (1) A                                    R^2 =  8.50178e-07
  Excitation energy:                                              12.644180 eV
  Excitation energy:                                               0.294918 eV
  Excitation energy:                                               0.468865 eV
  Excitation energy:                                               0.173947 eV
  Excitation energy:                                               1.110942 eV
  Excitation energy:                                               0.816024 eV
  Excitation energy:                                               0.642077 eV
  Excitation energy:                                               1.499436 eV
  Excitation energy:                                               1.204518 eV
  Excitation energy:                                               1.030571 eV
  Excitation energy:                                               0.388494 eV
  Excitation energy:                                               1.829467 eV
  Excitation energy:                                               1.534549 eV
  Excitation energy:                                               1.360602 eV
  Excitation energy:                                               0.718525 eV
  Excitation energy:                                               0.330031 eV
  Excitation energy:                                               2.832377 eV
  Excitation energy:                                               2.537459 eV
  Excitation energy:                                               2.363512 eV
  Excitation energy:                                               1.721435 eV
  Excitation energy:                                               1.332941 eV
  Excitation energy:                                               1.002910 eV
  Excitation energy:                                               3.408875 eV
  Excitation energy:                                               3.113957 eV
  Excitation energy:                                               2.940010 eV
  Excitation energy:                                               2.297933 eV
  Excitation energy:                                               1.909439 eV
  Excitation energy:                                               1.579408 eV
  Excitation energy:                                               0.576498 eV
  Excitation energy:                                               3.668903 eV
  Excitation energy:                                               3.373985 eV
  Excitation energy:                                               3.200038 eV
  Excitation energy:                                               2.557961 eV
  Excitation energy:                                               2.169467 eV
  Excitation energy:                                               1.839436 eV
  Excitation energy:                                               0.836526 eV
  Excitation energy:                                               0.260028 eV
  Excitation energy:                                               3.910137 eV
  Excitation energy:                                               3.615219 eV
  Excitation energy:                                               3.441271 eV
  Excitation energy:                                               2.799195 eV
  Excitation energy:                                               2.410700 eV
  Excitation energy:                                               2.080670 eV
  Excitation energy:                                               1.077760 eV
  Excitation energy:                                               0.501262 eV
  Excitation energy:                                               0.241234 eV

                    Orbital Energies (a.u.)
 --------------------------------------------------------------

 Alpha MOs
 -- Occupied --
-11.2351 -11.2332  -1.0322  -0.7921  -0.6398  -0.5848  -0.5039  -0.3740

          Ground-State Mulliken Net Atomic Charges

     Atom                 Charge (a.u.)
  ----------------------------------------
      1 H                     0.046159
      2 C                    -0.092953
      3 H                     0.045398
      4 C                    -0.094783
      5 H                     0.048052
      6 H                     0.048128
  ----------------------------------------
  Sum of atomic charges =     0.000000

                    Cartesian Multipole Moments
 -----------------------------------------------------------------
    Charge (ESU x 10^10)
                 0.0000
    Dipole Moment (Debye)
         X       0.0062      Y      -0.0076      Z      -0.0003
       Tot       0.0099
    Quadrupole Moments (Debye-Ang)
        XX     -12.2580     XY      -0.1202     YY     -12.2175
        XZ       0.1489     YZ       0.1945     ZZ     -15.5291

 Total job time:  71.63s(wall), 244.79s(cpu)
        *  Thank you very much for using Q-Chem.  Have a nice day.  *
