 Q-Chem 5.4 (devel), Q-Chem, Inc., Pleasanton, CA (2021)
 Q-Chem 5.4.1 for Intel X86 EM64T Linux

User input:
--------------------------------------------------------------
$comment
generated from CCJob.Templates
$end

$rem
sym_ignore = true
method = adc(2)
ee_states = 10
basis = cc-pVDZ
mem_static = 1024
mem_total = 40000
adc_davidson_maxiter = 900
adc_davidson_conv = 6
adc_print = 3
adc_prop_es = true
adc_prop_es2es = true
adc_prop_tpa = true
molden_format = True
state_analysis = true
print_orbitals = 15
gen_scfman = false
fde_export_density = true
fde_details = 3
$end

$molecule
0 1
H -0.033851493960885284 -0.209693790866526 0.06629178514482403
C -1.0853172258134427 -0.5322178542610745 -0.002872380332147149
H -1.2633425457433733 -1.6034123508185278 -0.07710409857884018
C -2.052166119813379 0.3860431194390214 0.006100199967906136
H -1.7836472129435013 1.4521080826813761 0.08251684392085076
H -3.113438833460917 0.15369479043347398 -0.0596355081553145
$end
--------------------------------------------------------------

             Standard Nuclear Orientation (Angstroms)
    I     Atom           X                Y                Z
 ----------------------------------------------------------------
    1      H      -0.0338514940    -0.2096937909     0.0662917851
    2      C      -1.0853172258    -0.5322178543    -0.0028723803
    3      H      -1.2633425457    -1.6034123508    -0.0771040986
    4      C      -2.0521661198     0.3860431194     0.0061002000
    5      H      -1.7836472129     1.4521080827     0.0825168439
    6      H      -3.1134388335     0.1536947904    -0.0596355082
 ----------------------------------------------------------------

   10     -78.0390953180      9.12E-09 Convergence criterion met
 Total energy in the final basis set = -78.03909532
  Excited state 1 (singlet, A)                                     [converged]
  Term symbol:  2 (1) A                                     R^2 =  1.96555e-11
  Excitation energy:                                               8.732110 eV
  Excited state 2 (singlet, A)                                     [converged]
  Term symbol:  3 (1) A                                     R^2 =  5.72379e-11
  Excitation energy:                                               8.930078 eV
  Excited state 3 (singlet, A)                                     [converged]
  Term symbol:  4 (1) A                                     R^2 =  6.36299e-12
  Excitation energy:                                               9.122584 eV
  Excited state 4 (singlet, A)                                     [converged]
  Term symbol:  5 (1) A                                     R^2 =  1.89617e-11
  Excitation energy:                                               9.752201 eV
  Excited state 5 (singlet, A)                                     [converged]
  Term symbol:  6 (1) A                                     R^2 =  1.23571e-11
  Excitation energy:                                              10.155105 eV
  Excited state 6 (singlet, A)                                     [converged]
  Term symbol:  7 (1) A                                     R^2 =  9.43359e-11
  Excitation energy:                                              10.516582 eV
  Excited state 7 (singlet, A)                                     [converged]
  Term symbol:  8 (1) A                                     R^2 =  7.84697e-08
  Excitation energy:                                              11.398214 eV
  Excited state 8 (singlet, A)                                     [converged]
  Term symbol:  9 (1) A                                     R^2 =  1.18256e-07
  Excitation energy:                                              12.070812 eV
  Excited state 9 (singlet, A)                                     [converged]
  Term symbol:  10 (1) A                                    R^2 =  3.30012e-07
  Excitation energy:                                              12.348610 eV
  Excited state 10 (singlet, A)                                     [converged]
  Term symbol:  11 (1) A                                    R^2 =  5.89128e-07
  Excitation energy:                                              12.467149 eV
  Excitation energy:                                               0.197968 eV
  Excitation energy:                                               0.390474 eV
  Excitation energy:                                               0.192506 eV
  Excitation energy:                                               1.020091 eV
  Excitation energy:                                               0.822123 eV
  Excitation energy:                                               0.629617 eV
  Excitation energy:                                               1.422995 eV
  Excitation energy:                                               1.225027 eV
  Excitation energy:                                               1.032521 eV
  Excitation energy:                                               0.402904 eV
  Excitation energy:                                               1.784472 eV
  Excitation energy:                                               1.586504 eV
  Excitation energy:                                               1.393998 eV
  Excitation energy:                                               0.764381 eV
  Excitation energy:                                               0.361477 eV
  Excitation energy:                                               2.666104 eV
  Excitation energy:                                               2.468136 eV
  Excitation energy:                                               2.275630 eV
  Excitation energy:                                               1.646013 eV
  Excitation energy:                                               1.243109 eV
  Excitation energy:                                               0.881632 eV
  Excitation energy:                                               3.338702 eV
  Excitation energy:                                               3.140734 eV
  Excitation energy:                                               2.948228 eV
  Excitation energy:                                               2.318611 eV
  Excitation energy:                                               1.915707 eV
  Excitation energy:                                               1.554230 eV
  Excitation energy:                                               0.672598 eV
  Excitation energy:                                               3.616500 eV
  Excitation energy:                                               3.418532 eV
  Excitation energy:                                               3.226026 eV
  Excitation energy:                                               2.596410 eV
  Excitation energy:                                               2.193505 eV
  Excitation energy:                                               1.832028 eV
  Excitation energy:                                               0.950396 eV
  Excitation energy:                                               0.277798 eV
  Excitation energy:                                               3.735039 eV
  Excitation energy:                                               3.537071 eV
  Excitation energy:                                               3.344565 eV
  Excitation energy:                                               2.714948 eV
  Excitation energy:                                               2.312044 eV
  Excitation energy:                                               1.950567 eV
  Excitation energy:                                               1.068935 eV
  Excitation energy:                                               0.396337 eV
  Excitation energy:                                               0.118539 eV

                    Orbital Energies (a.u.)
 --------------------------------------------------------------

 Alpha MOs
 -- Occupied --
-11.2391 -11.2375  -1.0299  -0.7856  -0.6352  -0.5820  -0.4988  -0.3745

          Ground-State Mulliken Net Atomic Charges

     Atom                 Charge (a.u.)
  ----------------------------------------
      1 H                     0.052498
      2 C                    -0.105058
      3 H                     0.052570
      4 C                    -0.105066
      5 H                     0.052501
      6 H                     0.052555
  ----------------------------------------
  Sum of atomic charges =     0.000000

                    Cartesian Multipole Moments
 -----------------------------------------------------------------
    Charge (ESU x 10^10)
                -0.0000
    Dipole Moment (Debye)
         X      -0.0031      Y      -0.0032      Z      -0.0027
       Tot       0.0052
    Quadrupole Moments (Debye-Ang)
        XX     -12.2384     XY      -0.1045     YY     -12.2621
        XZ       0.1600     YZ       0.1986     ZZ     -15.6140

 Total job time:  127.28s(wall), 397.15s(cpu)
        *  Thank you very much for using Q-Chem.  Have a nice day.  *
