 Q-Chem 5.4 (devel), Q-Chem, Inc., Pleasanton, CA (2021)
 Q-Chem 5.4.1 for Intel X86 EM64T Linux

User input:
--------------------------------------------------------------
$comment
generated from CCJob.Templates
$end

$rem
sym_ignore = true
method = adc(2)
ee_states = 10
basis = cc-pVDZ
mem_static = 1024
mem_total = 30000
adc_davidson_maxiter = 900
adc_davidson_conv = 6
adc_print = 3
adc_prop_es = true
adc_prop_es2es = true
adc_prop_tpa = true
molden_format = True
state_analysis = true
print_orbitals = 15
gen_scfman = false
fde_export_density = true
fde_details = 3
$end

$molecule
0 1
H -0.0348278765 -0.2442097827 0.0636489606
C -1.0765972949 -0.5242748755 -0.0023551776
H -1.313264467 -1.5767591607 -0.0757276926
C -2.043634118 0.3926884087 0.0061254933
H -1.8137616575 1.4459188338 0.0854456828
H -3.085977293 0.114931858 -0.0593381042
$end
--------------------------------------------------------------

             Standard Nuclear Orientation (Angstroms)
    I     Atom           X                Y                Z
 ----------------------------------------------------------------
    1      H      -0.0348278765    -0.2442097827     0.0636489606
    2      C      -1.0765972949    -0.5242748755    -0.0023551776
    3      H      -1.3132644670    -1.5767591607    -0.0757276926
    4      C      -2.0436341180     0.3926884087     0.0061254933
    5      H      -1.8137616575     1.4459188338     0.0854456828
    6      H      -3.0859772930     0.1149318580    -0.0593381042
 ----------------------------------------------------------------

   10     -78.0399266498      9.72E-09 Convergence criterion met
 Total energy in the final basis set = -78.03992665
  Excited state 1 (singlet, A)                                     [converged]
  Term symbol:  2 (1) A                                     R^2 =  2.04750e-13
  Excitation energy:                                               8.736940 eV
  Excited state 2 (singlet, A)                                     [converged]
  Term symbol:  3 (1) A                                     R^2 =  1.31269e-13
  Excitation energy:                                               9.054208 eV
  Excited state 3 (singlet, A)                                     [converged]
  Term symbol:  4 (1) A                                     R^2 =  1.95436e-13
  Excitation energy:                                               9.170305 eV
  Excited state 4 (singlet, A)                                     [converged]
  Term symbol:  5 (1) A                                     R^2 =  1.06233e-13
  Excitation energy:                                               9.832800 eV
  Excited state 5 (singlet, A)                                     [converged]
  Term symbol:  6 (1) A                                     R^2 =  2.75055e-13
  Excitation energy:                                              10.211694 eV
  Excited state 6 (singlet, A)                                     [converged]
  Term symbol:  7 (1) A                                     R^2 =  4.31804e-13
  Excitation energy:                                              10.535473 eV
  Excited state 7 (singlet, A)                                     [converged]
  Term symbol:  8 (1) A                                     R^2 =  2.95663e-12
  Excitation energy:                                              11.556114 eV
  Excited state 8 (singlet, A)                                     [converged]
  Term symbol:  9 (1) A                                     R^2 =  2.58045e-11
  Excitation energy:                                              12.165108 eV
  Excited state 9 (singlet, A)                                     [converged]
  Term symbol:  10 (1) A                                    R^2 =  7.97232e-10
  Excitation energy:                                              12.416877 eV
  Excited state 10 (singlet, A)                                     [converged]
  Term symbol:  11 (1) A                                    R^2 =  4.92587e-07
  Excitation energy:                                              12.644867 eV
  Excitation energy:                                               0.317268 eV
  Excitation energy:                                               0.433364 eV
  Excitation energy:                                               0.116097 eV
  Excitation energy:                                               1.095859 eV
  Excitation energy:                                               0.778592 eV
  Excitation energy:                                               0.662495 eV
  Excitation energy:                                               1.474754 eV
  Excitation energy:                                               1.157486 eV
  Excitation energy:                                               1.041390 eV
  Excitation energy:                                               0.378895 eV
  Excitation energy:                                               1.798532 eV
  Excitation energy:                                               1.481265 eV
  Excitation energy:                                               1.365168 eV
  Excitation energy:                                               0.702673 eV
  Excitation energy:                                               0.323778 eV
  Excitation energy:                                               2.819174 eV
  Excitation energy:                                               2.501906 eV
  Excitation energy:                                               2.385809 eV
  Excitation energy:                                               1.723314 eV
  Excitation energy:                                               1.344420 eV
  Excitation energy:                                               1.020641 eV
  Excitation energy:                                               3.428168 eV
  Excitation energy:                                               3.110900 eV
  Excitation energy:                                               2.994803 eV
  Excitation energy:                                               2.332308 eV
  Excitation energy:                                               1.953414 eV
  Excitation energy:                                               1.629635 eV
  Excitation energy:                                               0.608994 eV
  Excitation energy:                                               3.679937 eV
  Excitation energy:                                               3.362669 eV
  Excitation energy:                                               3.246572 eV
  Excitation energy:                                               2.584077 eV
  Excitation energy:                                               2.205183 eV
  Excitation energy:                                               1.881404 eV
  Excitation energy:                                               0.860763 eV
  Excitation energy:                                               0.251769 eV
  Excitation energy:                                               3.907926 eV
  Excitation energy:                                               3.590659 eV
  Excitation energy:                                               3.474562 eV
  Excitation energy:                                               2.812067 eV
  Excitation energy:                                               2.433172 eV
  Excitation energy:                                               2.109394 eV
  Excitation energy:                                               1.088753 eV
  Excitation energy:                                               0.479759 eV
  Excitation energy:                                               0.227990 eV

                    Orbital Energies (a.u.)
 --------------------------------------------------------------

 Alpha MOs
 -- Occupied --
-11.2351 -11.2335  -1.0323  -0.7897  -0.6411  -0.5819  -0.5046  -0.3740

          Ground-State Mulliken Net Atomic Charges

     Atom                 Charge (a.u.)
  ----------------------------------------
      1 H                     0.048123
      2 C                    -0.095082
      3 H                     0.047661
      4 C                    -0.095681
      5 H                     0.047293
      6 H                     0.047686
  ----------------------------------------
  Sum of atomic charges =     0.000000

                    Cartesian Multipole Moments
 -----------------------------------------------------------------
    Charge (ESU x 10^10)
                -0.0000
    Dipole Moment (Debye)
         X      -0.0019      Y       0.0013      Z       0.0046
       Tot       0.0052
    Quadrupole Moments (Debye-Ang)
        XX     -12.2129     XY      -0.0578     YY     -12.2692
        XZ       0.1470     YZ       0.1994     ZZ     -15.5408

 Total job time:  261.78s(wall), 803.06s(cpu)
        *  Thank you very much for using Q-Chem.  Have a nice day.  *
