 Q-Chem 5.4 (devel), Q-Chem, Inc., Pleasanton, CA (2021)
 Q-Chem 5.4.1 for Intel X86 EM64T Linux

User input:
--------------------------------------------------------------
$comment
generated from CCJob.Templates
$end

$rem
sym_ignore = true
method = adc(2)
ee_states = 10
basis = cc-pVDZ
mem_static = 1024
mem_total = 40000
adc_davidson_maxiter = 900
adc_davidson_conv = 6
adc_print = 3
adc_prop_es = true
adc_prop_es2es = true
adc_prop_tpa = true
molden_format = True
state_analysis = true
print_orbitals = 15
gen_scfman = false
fde_export_density = true
fde_details = 3
$end

$molecule
0 1
H -0.023498934909950798 -0.24864474531031902 0.10191681229443907
C -1.076992747124719 -0.5232466557143689 -0.023723172848995205
H -1.3024230202684648 -1.5954209113589883 -0.040717791572105436
C -2.043838601125624 0.3950188779842736 -0.014827312521732604
H -1.8227303274678708 1.460094642142482 0.1189718709027813
H -3.1030874744096115 0.11473967599115158 -0.02394104103047623
$end
--------------------------------------------------------------

             Standard Nuclear Orientation (Angstroms)
    I     Atom           X                Y                Z
 ----------------------------------------------------------------
    1      H      -0.0234989349    -0.2486447453     0.1019168123
    2      C      -1.0769927471    -0.5232466557    -0.0237231728
    3      H      -1.3024230203    -1.5954209114    -0.0407177916
    4      C      -2.0438386011     0.3950188780    -0.0148273125
    5      H      -1.8227303275     1.4600946421     0.1189718709
    6      H      -3.1030874744     0.1147396760    -0.0239410410
 ----------------------------------------------------------------

   10     -78.0386666346      6.23E-09 Convergence criterion met
 Total energy in the final basis set = -78.03866663
  Excited state 1 (singlet, A)                                     [converged]
  Term symbol:  2 (1) A                                     R^2 =  1.28155e-11
  Excitation energy:                                               8.703465 eV
  Excited state 2 (singlet, A)                                     [converged]
  Term symbol:  3 (1) A                                     R^2 =  4.96908e-10
  Excitation energy:                                               8.910812 eV
  Excited state 3 (singlet, A)                                     [converged]
  Term symbol:  4 (1) A                                     R^2 =  3.25620e-11
  Excitation energy:                                               9.138243 eV
  Excited state 4 (singlet, A)                                     [converged]
  Term symbol:  5 (1) A                                     R^2 =  2.89349e-11
  Excitation energy:                                               9.721154 eV
  Excited state 5 (singlet, A)                                     [converged]
  Term symbol:  6 (1) A                                     R^2 =  6.40865e-11
  Excitation energy:                                              10.151769 eV
  Excited state 6 (singlet, A)                                     [converged]
  Term symbol:  7 (1) A                                     R^2 =  8.38654e-11
  Excitation energy:                                              10.515991 eV
  Excited state 7 (singlet, A)                                     [converged]
  Term symbol:  8 (1) A                                     R^2 =  7.24908e-08
  Excitation energy:                                              11.405864 eV
  Excited state 8 (singlet, A)                                     [converged]
  Term symbol:  9 (1) A                                     R^2 =  2.35200e-07
  Excitation energy:                                              12.039617 eV
  Excited state 9 (singlet, A)                                     [converged]
  Term symbol:  10 (1) A                                    R^2 =  9.53992e-07
  Excitation energy:                                              12.339040 eV
  Excited state 10 (singlet, A)                                     [converged]
  Term symbol:  11 (1) A                                    R^2 =  7.91058e-07
  Excitation energy:                                              12.440609 eV
  Excitation energy:                                               0.207347 eV
  Excitation energy:                                               0.434778 eV
  Excitation energy:                                               0.227431 eV
  Excitation energy:                                               1.017689 eV
  Excitation energy:                                               0.810342 eV
  Excitation energy:                                               0.582911 eV
  Excitation energy:                                               1.448304 eV
  Excitation energy:                                               1.240957 eV
  Excitation energy:                                               1.013526 eV
  Excitation energy:                                               0.430615 eV
  Excitation energy:                                               1.812526 eV
  Excitation energy:                                               1.605179 eV
  Excitation energy:                                               1.377748 eV
  Excitation energy:                                               0.794837 eV
  Excitation energy:                                               0.364222 eV
  Excitation energy:                                               2.702398 eV
  Excitation energy:                                               2.495051 eV
  Excitation energy:                                               2.267620 eV
  Excitation energy:                                               1.684710 eV
  Excitation energy:                                               1.254094 eV
  Excitation energy:                                               0.889873 eV
  Excitation energy:                                               3.336152 eV
  Excitation energy:                                               3.128805 eV
  Excitation energy:                                               2.901374 eV
  Excitation energy:                                               2.318463 eV
  Excitation energy:                                               1.887848 eV
  Excitation energy:                                               1.523626 eV
  Excitation energy:                                               0.633753 eV
  Excitation energy:                                               3.635575 eV
  Excitation energy:                                               3.428228 eV
  Excitation energy:                                               3.200797 eV
  Excitation energy:                                               2.617886 eV
  Excitation energy:                                               2.187271 eV
  Excitation energy:                                               1.823049 eV
  Excitation energy:                                               0.933177 eV
  Excitation energy:                                               0.299423 eV
  Excitation energy:                                               3.737143 eV
  Excitation energy:                                               3.529797 eV
  Excitation energy:                                               3.302366 eV
  Excitation energy:                                               2.719455 eV
  Excitation energy:                                               2.288839 eV
  Excitation energy:                                               1.924618 eV
  Excitation energy:                                               1.034745 eV
  Excitation energy:                                               0.400992 eV
  Excitation energy:                                               0.101569 eV

                    Orbital Energies (a.u.)
 --------------------------------------------------------------

 Alpha MOs
 -- Occupied --
-11.2393 -11.2376  -1.0299  -0.7853  -0.6342  -0.5824  -0.4986  -0.3745

          Ground-State Mulliken Net Atomic Charges

     Atom                 Charge (a.u.)
  ----------------------------------------
      1 H                     0.052984
      2 C                    -0.105955
      3 H                     0.052997
      4 C                    -0.106012
      5 H                     0.053000
      6 H                     0.052987
  ----------------------------------------
  Sum of atomic charges =     0.000000

                    Cartesian Multipole Moments
 -----------------------------------------------------------------
    Charge (ESU x 10^10)
                -0.0000
    Dipole Moment (Debye)
         X      -0.0078      Y      -0.0099      Z       0.1620
       Tot       0.1625
    Quadrupole Moments (Debye-Ang)
        XX     -12.2390     XY      -0.0877     YY     -12.2759
        XZ      -0.0980     YZ       0.1869     ZZ     -15.6046

 Total job time:  130.67s(wall), 402.77s(cpu)
        *  Thank you very much for using Q-Chem.  Have a nice day.  *
