 Q-Chem 5.4 (devel), Q-Chem, Inc., Pleasanton, CA (2021)
 Q-Chem 5.4.1 for Intel X86 EM64T Linux

User input:
--------------------------------------------------------------
$comment
generated from CCJob.Templates
$end

$rem
sym_ignore = true
method = adc(2)
ee_states = 10
basis = cc-pVDZ
mem_static = 1024
mem_total = 40000
adc_davidson_maxiter = 900
adc_davidson_conv = 6
adc_print = 3
adc_prop_es = true
adc_prop_es2es = true
adc_prop_tpa = true
molden_format = True
state_analysis = true
print_orbitals = 15
gen_scfman = false
fde_export_density = true
fde_details = 3
$end

$molecule
0 1
H -0.0348278765 -0.2442097827 0.0636489606
C -1.0765972949 -0.5242748755 -0.0023551776
H -1.313264467 -1.5767591607 -0.0757276926
C -2.043634118 0.3926884087 0.0061254933
H -1.8137616575 1.4459188338 0.0804456828
H -3.085977293 0.114931858 -0.019338104199999998
$end
--------------------------------------------------------------

             Standard Nuclear Orientation (Angstroms)
    I     Atom           X                Y                Z
 ----------------------------------------------------------------
    1      H      -0.0348278765    -0.2442097827     0.0636489606
    2      C      -1.0765972949    -0.5242748755    -0.0023551776
    3      H      -1.3132644670    -1.5767591607    -0.0757276926
    4      C      -2.0436341180     0.3926884087     0.0061254933
    5      H      -1.8137616575     1.4459188338     0.0804456828
    6      H      -3.0859772930     0.1149318580    -0.0193381042
 ----------------------------------------------------------------

   11     -78.0398361347      5.69E-09 Convergence criterion met
 Total energy in the final basis set = -78.03983613
  Excited state 1 (singlet, A)                                     [converged]
  Term symbol:  2 (1) A                                     R^2 =  6.15658e-14
  Excitation energy:                                               8.726896 eV
  Excited state 2 (singlet, A)                                     [converged]
  Term symbol:  3 (1) A                                     R^2 =  1.28939e-13
  Excitation energy:                                               9.058786 eV
  Excited state 3 (singlet, A)                                     [converged]
  Term symbol:  4 (1) A                                     R^2 =  1.53583e-13
  Excitation energy:                                               9.172793 eV
  Excited state 4 (singlet, A)                                     [converged]
  Term symbol:  5 (1) A                                     R^2 =  2.57631e-13
  Excitation energy:                                               9.836589 eV
  Excited state 5 (singlet, A)                                     [converged]
  Term symbol:  6 (1) A                                     R^2 =  1.33339e-13
  Excitation energy:                                              10.213250 eV
  Excited state 6 (singlet, A)                                     [converged]
  Term symbol:  7 (1) A                                     R^2 =  5.66814e-13
  Excitation energy:                                              10.536474 eV
  Excited state 7 (singlet, A)                                     [converged]
  Term symbol:  8 (1) A                                     R^2 =  2.03628e-10
  Excitation energy:                                              11.560892 eV
  Excited state 8 (singlet, A)                                     [converged]
  Term symbol:  9 (1) A                                     R^2 =  3.30760e-09
  Excitation energy:                                              12.163988 eV
  Excited state 9 (singlet, A)                                     [converged]
  Term symbol:  10 (1) A                                    R^2 =  3.10692e-08
  Excitation energy:                                              12.415686 eV
  Excited state 10 (singlet, A)                                     [converged]
  Term symbol:  11 (1) A                                    R^2 =  7.81460e-07
  Excitation energy:                                              12.649934 eV
  Excitation energy:                                               0.331890 eV
  Excitation energy:                                               0.445898 eV
  Excitation energy:                                               0.114008 eV
  Excitation energy:                                               1.109694 eV
  Excitation energy:                                               0.777803 eV
  Excitation energy:                                               0.663796 eV
  Excitation energy:                                               1.486354 eV
  Excitation energy:                                               1.154464 eV
  Excitation energy:                                               1.040457 eV
  Excitation energy:                                               0.376661 eV
  Excitation energy:                                               1.809579 eV
  Excitation energy:                                               1.477689 eV
  Excitation energy:                                               1.363681 eV
  Excitation energy:                                               0.699885 eV
  Excitation energy:                                               0.323224 eV
  Excitation energy:                                               2.833997 eV
  Excitation energy:                                               2.502107 eV
  Excitation energy:                                               2.388099 eV
  Excitation energy:                                               1.724303 eV
  Excitation energy:                                               1.347642 eV
  Excitation energy:                                               1.024418 eV
  Excitation energy:                                               3.437092 eV
  Excitation energy:                                               3.105202 eV
  Excitation energy:                                               2.991195 eV
  Excitation energy:                                               2.327399 eV
  Excitation energy:                                               1.950738 eV
  Excitation energy:                                               1.627513 eV
  Excitation energy:                                               0.603095 eV
  Excitation energy:                                               3.688790 eV
  Excitation energy:                                               3.356900 eV
  Excitation energy:                                               3.242893 eV
  Excitation energy:                                               2.579097 eV
  Excitation energy:                                               2.202436 eV
  Excitation energy:                                               1.879211 eV
  Excitation energy:                                               0.854793 eV
  Excitation energy:                                               0.251698 eV
  Excitation energy:                                               3.923038 eV
  Excitation energy:                                               3.591148 eV
  Excitation energy:                                               3.477141 eV
  Excitation energy:                                               2.813345 eV
  Excitation energy:                                               2.436684 eV
  Excitation energy:                                               2.113460 eV
  Excitation energy:                                               1.089041 eV
  Excitation energy:                                               0.485946 eV
  Excitation energy:                                               0.234248 eV

                    Orbital Energies (a.u.)
 --------------------------------------------------------------

 Alpha MOs
 -- Occupied --
-11.2350 -11.2333  -1.0323  -0.7900  -0.6412  -0.5821  -0.5047  -0.3740

          Ground-State Mulliken Net Atomic Charges

     Atom                 Charge (a.u.)
  ----------------------------------------
      1 H                     0.048160
      2 C                    -0.095247
      3 H                     0.047687
      4 C                    -0.094854
      5 H                     0.047034
      6 H                     0.047219
  ----------------------------------------
  Sum of atomic charges =     0.000000

                    Cartesian Multipole Moments
 -----------------------------------------------------------------
    Charge (ESU x 10^10)
                 0.0000
    Dipole Moment (Debye)
         X      -0.0032      Y      -0.0001      Z       0.0290
       Tot       0.0292
    Quadrupole Moments (Debye-Ang)
        XX     -12.2037     XY      -0.0567     YY     -12.2689
        XZ       0.0582     YZ       0.1913     ZZ     -15.5416

 Total job time:  81.83s(wall), 284.62s(cpu)
        *  Thank you very much for using Q-Chem.  Have a nice day.  *
