 Q-Chem 5.4 (devel), Q-Chem, Inc., Pleasanton, CA (2021)
 Q-Chem 5.4.1 for Intel X86 EM64T Linux

User input:
--------------------------------------------------------------
$comment
generated from CCJob.Templates
$end

$rem
sym_ignore = true
method = adc(2)
ee_states = 10
basis = cc-pVDZ
mem_static = 1024
mem_total = 40000
adc_davidson_maxiter = 900
adc_davidson_conv = 6
adc_print = 3
adc_prop_es = true
adc_prop_es2es = true
adc_prop_tpa = true
molden_format = True
state_analysis = true
print_orbitals = 15
gen_scfman = false
fde_export_density = true
fde_details = 3
$end

$molecule
0 1
H -0.02141693564179394 -0.24902194524245916 0.10641017202776215
C -1.0696096294689224 -0.5295933736364211 0.009428575809096762
H -1.2957754224446976 -1.5933270721083104 -0.10045985118158537
C -2.039428122514066 0.38599832092196207 -0.028390988847476806
H -1.8229832074257095 1.4589904024211835 0.09795939884432531
H -3.097315956327636 0.11468279595589798 -0.10881093256533084
$end
--------------------------------------------------------------

             Standard Nuclear Orientation (Angstroms)
    I     Atom           X                Y                Z
 ----------------------------------------------------------------
    1      H      -0.0214169356    -0.2490219452     0.1064101720
    2      C      -1.0696096295    -0.5295933736     0.0094285758
    3      H      -1.2957754224    -1.5933270721    -0.1004598512
    4      C      -2.0394281225     0.3859983209    -0.0283909888
    5      H      -1.8229832074     1.4589904024     0.0979593988
    6      H      -3.0973159563     0.1146827960    -0.1088109326
 ----------------------------------------------------------------

   11     -78.0393163858      7.29E-09 Convergence criterion met
 Total energy in the final basis set = -78.03931639
  Excited state 1 (singlet, A)                                     [converged]
  Term symbol:  2 (1) A                                     R^2 =  2.70911e-13
  Excitation energy:                                               8.720948 eV
  Excited state 2 (singlet, A)                                     [converged]
  Term symbol:  3 (1) A                                     R^2 =  2.72559e-13
  Excitation energy:                                               8.940124 eV
  Excited state 3 (singlet, A)                                     [converged]
  Term symbol:  4 (1) A                                     R^2 =  2.54269e-13
  Excitation energy:                                               9.138159 eV
  Excited state 4 (singlet, A)                                     [converged]
  Term symbol:  5 (1) A                                     R^2 =  4.18505e-13
  Excitation energy:                                               9.734834 eV
  Excited state 5 (singlet, A)                                     [converged]
  Term symbol:  6 (1) A                                     R^2 =  3.72449e-13
  Excitation energy:                                              10.150276 eV
  Excited state 6 (singlet, A)                                     [converged]
  Term symbol:  7 (1) A                                     R^2 =  1.49349e-12
  Excitation energy:                                              10.507426 eV
  Excited state 7 (singlet, A)                                     [converged]
  Term symbol:  8 (1) A                                     R^2 =  1.12479e-10
  Excitation energy:                                              11.427704 eV
  Excited state 8 (singlet, A)                                     [converged]
  Term symbol:  9 (1) A                                     R^2 =  2.45335e-08
  Excitation energy:                                              12.057031 eV
  Excited state 9 (singlet, A)                                     [converged]
  Term symbol:  10 (1) A                                    R^2 =  3.03497e-07
  Excitation energy:                                              12.338185 eV
  Excited state 10 (singlet, A)                                     [converged]
  Term symbol:  11 (1) A                                    R^2 =  7.13315e-07
  Excitation energy:                                              12.472297 eV
  Excitation energy:                                               0.219176 eV
  Excitation energy:                                               0.417211 eV
  Excitation energy:                                               0.198035 eV
  Excitation energy:                                               1.013886 eV
  Excitation energy:                                               0.794710 eV
  Excitation energy:                                               0.596675 eV
  Excitation energy:                                               1.429329 eV
  Excitation energy:                                               1.210152 eV
  Excitation energy:                                               1.012117 eV
  Excitation energy:                                               0.415442 eV
  Excitation energy:                                               1.786478 eV
  Excitation energy:                                               1.567302 eV
  Excitation energy:                                               1.369267 eV
  Excitation energy:                                               0.772592 eV
  Excitation energy:                                               0.357150 eV
  Excitation energy:                                               2.706756 eV
  Excitation energy:                                               2.487580 eV
  Excitation energy:                                               2.289545 eV
  Excitation energy:                                               1.692869 eV
  Excitation energy:                                               1.277427 eV
  Excitation energy:                                               0.920278 eV
  Excitation energy:                                               3.336083 eV
  Excitation energy:                                               3.116907 eV
  Excitation energy:                                               2.918872 eV
  Excitation energy:                                               2.322197 eV
  Excitation energy:                                               1.906755 eV
  Excitation energy:                                               1.549605 eV
  Excitation energy:                                               0.629327 eV
  Excitation energy:                                               3.617237 eV
  Excitation energy:                                               3.398061 eV
  Excitation energy:                                               3.200026 eV
  Excitation energy:                                               2.603351 eV
  Excitation energy:                                               2.187909 eV
  Excitation energy:                                               1.830759 eV
  Excitation energy:                                               0.910481 eV
  Excitation energy:                                               0.281154 eV
  Excitation energy:                                               3.751349 eV
  Excitation energy:                                               3.532173 eV
  Excitation energy:                                               3.334138 eV
  Excitation energy:                                               2.737462 eV
  Excitation energy:                                               2.322020 eV
  Excitation energy:                                               1.964871 eV
  Excitation energy:                                               1.044593 eV
  Excitation energy:                                               0.415266 eV
  Excitation energy:                                               0.134112 eV

                    Orbital Energies (a.u.)
 --------------------------------------------------------------

 Alpha MOs
 -- Occupied --
-11.2393 -11.2372  -1.0297  -0.7857  -0.6349  -0.5820  -0.4994  -0.3743

          Ground-State Mulliken Net Atomic Charges

     Atom                 Charge (a.u.)
  ----------------------------------------
      1 H                     0.052086
      2 C                    -0.099549
      3 H                     0.052121
      4 C                    -0.111042
      5 H                     0.053435
      6 H                     0.052950
  ----------------------------------------
  Sum of atomic charges =     0.000000

                    Cartesian Multipole Moments
 -----------------------------------------------------------------
    Charge (ESU x 10^10)
                -0.0000
    Dipole Moment (Debye)
         X      -0.0017      Y      -0.0038      Z       0.0227
       Tot       0.0231
    Quadrupole Moments (Debye-Ang)
        XX     -12.2222     XY      -0.1051     YY     -12.3046
        XZ       0.2053     YZ       0.2718     ZZ     -15.5940

 Total job time:  159.20s(wall), 447.74s(cpu)
        *  Thank you very much for using Q-Chem.  Have a nice day.  *
