 Q-Chem 5.4 (devel), Q-Chem, Inc., Pleasanton, CA (2021)
 Q-Chem 5.4.1 for Intel X86 EM64T Linux

User input:
--------------------------------------------------------------
$comment
generated from CCJob.Templates
$end

$rem
sym_ignore = true
method = adc(2)
ee_states = 10
basis = cc-pVDZ
mem_static = 1024
mem_total = 40000
adc_davidson_maxiter = 900
adc_davidson_conv = 6
adc_print = 3
adc_prop_es = true
adc_prop_es2es = true
adc_prop_tpa = true
molden_format = True
state_analysis = true
print_orbitals = 15
gen_scfman = false
fde_export_density = true
fde_details = 3
$end

$molecule
0 1
H -0.0348278765 -0.2442097827 0.0636489606
C -1.0765972949 -0.5242748755 -0.0023551776
H -1.313264467 -1.5767591607 -0.0757276926
C -2.043634118 0.3926884087 0.0061254933
H -1.8137616575 1.4459188338 0.12044568280000001
H -3.085977293 0.114931858 -0.0593381042
$end
--------------------------------------------------------------

             Standard Nuclear Orientation (Angstroms)
    I     Atom           X                Y                Z
 ----------------------------------------------------------------
    1      H      -0.0348278765    -0.2442097827     0.0636489606
    2      C      -1.0765972949    -0.5242748755    -0.0023551776
    3      H      -1.3132644670    -1.5767591607    -0.0757276926
    4      C      -2.0436341180     0.3926884087     0.0061254933
    5      H      -1.8137616575     1.4459188338     0.1204456828
    6      H      -3.0859772930     0.1149318580    -0.0593381042
 ----------------------------------------------------------------

   11     -78.0398461828      5.73E-09 Convergence criterion met
 Total energy in the final basis set = -78.03984618
  Excited state 1 (singlet, A)                                     [converged]
  Term symbol:  2 (1) A                                     R^2 =  1.83215e-13
  Excitation energy:                                               8.726459 eV
  Excited state 2 (singlet, A)                                     [converged]
  Term symbol:  3 (1) A                                     R^2 =  1.78006e-13
  Excitation energy:                                               9.055469 eV
  Excited state 3 (singlet, A)                                     [converged]
  Term symbol:  4 (1) A                                     R^2 =  1.69292e-13
  Excitation energy:                                               9.165815 eV
  Excited state 4 (singlet, A)                                     [converged]
  Term symbol:  5 (1) A                                     R^2 =  8.08671e-14
  Excitation energy:                                               9.828318 eV
  Excited state 5 (singlet, A)                                     [converged]
  Term symbol:  6 (1) A                                     R^2 =  3.85058e-13
  Excitation energy:                                              10.206819 eV
  Excited state 6 (singlet, A)                                     [converged]
  Term symbol:  7 (1) A                                     R^2 =  9.43739e-13
  Excitation energy:                                              10.531402 eV
  Excited state 7 (singlet, A)                                     [converged]
  Term symbol:  8 (1) A                                     R^2 =  3.72006e-10
  Excitation energy:                                              11.549719 eV
  Excited state 8 (singlet, A)                                     [converged]
  Term symbol:  9 (1) A                                     R^2 =  3.16295e-09
  Excitation energy:                                              12.160721 eV
  Excited state 9 (singlet, A)                                     [converged]
  Term symbol:  10 (1) A                                    R^2 =  2.92319e-08
  Excitation energy:                                              12.412697 eV
  Excited state 10 (singlet, A)                                     [converged]
  Term symbol:  11 (1) A                                    R^2 =  6.24210e-07
  Excitation energy:                                              12.637367 eV
  Excitation energy:                                               0.329010 eV
  Excitation energy:                                               0.439356 eV
  Excitation energy:                                               0.110346 eV
  Excitation energy:                                               1.101859 eV
  Excitation energy:                                               0.772849 eV
  Excitation energy:                                               0.662503 eV
  Excitation energy:                                               1.480360 eV
  Excitation energy:                                               1.151350 eV
  Excitation energy:                                               1.041004 eV
  Excitation energy:                                               0.378501 eV
  Excitation energy:                                               1.804942 eV
  Excitation energy:                                               1.475932 eV
  Excitation energy:                                               1.365586 eV
  Excitation energy:                                               0.703083 eV
  Excitation energy:                                               0.324582 eV
  Excitation energy:                                               2.823260 eV
  Excitation energy:                                               2.494250 eV
  Excitation energy:                                               2.383904 eV
  Excitation energy:                                               1.721401 eV
  Excitation energy:                                               1.342900 eV
  Excitation energy:                                               1.018318 eV
  Excitation energy:                                               3.434262 eV
  Excitation energy:                                               3.105252 eV
  Excitation energy:                                               2.994906 eV
  Excitation energy:                                               2.332403 eV
  Excitation energy:                                               1.953902 eV
  Excitation energy:                                               1.629319 eV
  Excitation energy:                                               0.611002 eV
  Excitation energy:                                               3.686238 eV
  Excitation energy:                                               3.357228 eV
  Excitation energy:                                               3.246882 eV
  Excitation energy:                                               2.584379 eV
  Excitation energy:                                               2.205878 eV
  Excitation energy:                                               1.881296 eV
  Excitation energy:                                               0.862978 eV
  Excitation energy:                                               0.251976 eV
  Excitation energy:                                               3.910908 eV
  Excitation energy:                                               3.581897 eV
  Excitation energy:                                               3.471552 eV
  Excitation energy:                                               2.809049 eV
  Excitation energy:                                               2.430548 eV
  Excitation energy:                                               2.105965 eV
  Excitation energy:                                               1.087648 eV
  Excitation energy:                                               0.476646 eV
  Excitation energy:                                               0.224669 eV

                    Orbital Energies (a.u.)
 --------------------------------------------------------------

 Alpha MOs
 -- Occupied --
-11.2353 -11.2336  -1.0322  -0.7894  -0.6409  -0.5817  -0.5044  -0.3740

          Ground-State Mulliken Net Atomic Charges

     Atom                 Charge (a.u.)
  ----------------------------------------
      1 H                     0.048166
      2 C                    -0.094601
      3 H                     0.047689
      4 C                    -0.097314
      5 H                     0.048204
      6 H                     0.047856
  ----------------------------------------
  Sum of atomic charges =     0.000000

                    Cartesian Multipole Moments
 -----------------------------------------------------------------
    Charge (ESU x 10^10)
                -0.0000
    Dipole Moment (Debye)
         X      -0.0025      Y      -0.0029      Z       0.0288
       Tot       0.0290
    Quadrupole Moments (Debye-Ang)
        XX     -12.2119     XY      -0.0500     YY     -12.2792
        XZ       0.1077     YZ       0.2417     ZZ     -15.5376

 Total job time:  85.85s(wall), 286.10s(cpu)
        *  Thank you very much for using Q-Chem.  Have a nice day.  *
