 Q-Chem 5.4 (devel), Q-Chem, Inc., Pleasanton, CA (2021)
 Q-Chem 5.4.1 for Intel X86 EM64T Linux

User input:
--------------------------------------------------------------
$comment
generated from CCJob.Templates
$end

$rem
sym_ignore = true
method = adc(2)
ee_states = 10
basis = cc-pVDZ
mem_static = 1024
mem_total = 40000
adc_davidson_maxiter = 900
adc_davidson_conv = 6
adc_print = 3
adc_prop_es = true
adc_prop_es2es = true
adc_prop_tpa = true
molden_format = True
state_analysis = true
print_orbitals = 15
gen_scfman = false
fde_export_density = true
fde_details = 3
$end

$molecule
0 1
H -0.019594936290049204 -0.24530858648968099 0.028336998305560926
C -1.078829866475281 -0.5255909748856311 0.018997132048995207
H -1.2999815811315352 -1.5906628330410115 -0.11467408542789458
C -2.0456808404743763 0.3926668788157264 0.028047232321732604
H -1.820285528332129 1.4648610404575177 0.0448734970972187
H -3.0991815557903886 0.11808415480884842 -0.09766181496952377
$end
--------------------------------------------------------------

             Standard Nuclear Orientation (Angstroms)
    I     Atom           X                Y                Z
 ----------------------------------------------------------------
    1      H      -0.0195949363    -0.2453085865     0.0283369983
    2      C      -1.0788298665    -0.5255909749     0.0189971320
    3      H      -1.2999815811    -1.5906628330    -0.1146740854
    4      C      -2.0456808405     0.3926668788     0.0280472323
    5      H      -1.8202855283     1.4648610405     0.0448734971
    6      H      -3.0991815558     0.1180841548    -0.0976618150
 ----------------------------------------------------------------

   10     -78.0386675802      9.81E-09 Convergence criterion met
 Total energy in the final basis set = -78.03866758
  Excited state 1 (singlet, A)                                     [converged]
  Term symbol:  2 (1) A                                     R^2 =  4.01845e-11
  Excitation energy:                                               8.703497 eV
  Excited state 2 (singlet, A)                                     [converged]
  Term symbol:  3 (1) A                                     R^2 =  8.88057e-10
  Excitation energy:                                               8.910846 eV
  Excited state 3 (singlet, A)                                     [converged]
  Term symbol:  4 (1) A                                     R^2 =  8.68620e-11
  Excitation energy:                                               9.138248 eV
  Excited state 4 (singlet, A)                                     [converged]
  Term symbol:  5 (1) A                                     R^2 =  4.39382e-11
  Excitation energy:                                               9.721164 eV
  Excited state 5 (singlet, A)                                     [converged]
  Term symbol:  6 (1) A                                     R^2 =  1.79343e-10
  Excitation energy:                                              10.151776 eV
  Excited state 6 (singlet, A)                                     [converged]
  Term symbol:  7 (1) A                                     R^2 =  1.64525e-10
  Excitation energy:                                              10.516002 eV
  Excited state 7 (singlet, A)                                     [converged]
  Term symbol:  8 (1) A                                     R^2 =  8.45610e-08
  Excitation energy:                                              11.405880 eV
  Excited state 8 (singlet, A)                                     [converged]
  Term symbol:  9 (1) A                                     R^2 =  9.26752e-08
  Excitation energy:                                              12.039641 eV
  Excited state 9 (singlet, A)                                     [converged]
  Term symbol:  10 (1) A                                    R^2 =  3.01844e-07
  Excitation energy:                                              12.339045 eV
  Excited state 10 (singlet, A)                                     [converged]
  Term symbol:  11 (1) A                                    R^2 =  7.37933e-07
  Excitation energy:                                              12.440628 eV
  Excitation energy:                                               0.207349 eV
  Excitation energy:                                               0.434751 eV
  Excitation energy:                                               0.227402 eV
  Excitation energy:                                               1.017667 eV
  Excitation energy:                                               0.810318 eV
  Excitation energy:                                               0.582916 eV
  Excitation energy:                                               1.448278 eV
  Excitation energy:                                               1.240929 eV
  Excitation energy:                                               1.013528 eV
  Excitation energy:                                               0.430611 eV
  Excitation energy:                                               1.812504 eV
  Excitation energy:                                               1.605155 eV
  Excitation energy:                                               1.377754 eV
  Excitation energy:                                               0.794837 eV
  Excitation energy:                                               0.364226 eV
  Excitation energy:                                               2.702382 eV
  Excitation energy:                                               2.495033 eV
  Excitation energy:                                               2.267632 eV
  Excitation energy:                                               1.684715 eV
  Excitation energy:                                               1.254104 eV
  Excitation energy:                                               0.889878 eV
  Excitation energy:                                               3.336144 eV
  Excitation energy:                                               3.128795 eV
  Excitation energy:                                               2.901393 eV
  Excitation energy:                                               2.318477 eV
  Excitation energy:                                               1.887866 eV
  Excitation energy:                                               1.523639 eV
  Excitation energy:                                               0.633761 eV
  Excitation energy:                                               3.635548 eV
  Excitation energy:                                               3.428199 eV
  Excitation energy:                                               3.200797 eV
  Excitation energy:                                               2.617881 eV
  Excitation energy:                                               2.187270 eV
  Excitation energy:                                               1.823044 eV
  Excitation energy:                                               0.933165 eV
  Excitation energy:                                               0.299404 eV
  Excitation energy:                                               3.737130 eV
  Excitation energy:                                               3.529781 eV
  Excitation energy:                                               3.302380 eV
  Excitation energy:                                               2.719463 eV
  Excitation energy:                                               2.288852 eV
  Excitation energy:                                               1.924626 eV
  Excitation energy:                                               1.034748 eV
  Excitation energy:                                               0.400986 eV
  Excitation energy:                                               0.101582 eV

                    Orbital Energies (a.u.)
 --------------------------------------------------------------

 Alpha MOs
 -- Occupied --
-11.2393 -11.2376  -1.0299  -0.7853  -0.6342  -0.5824  -0.4986  -0.3745

          Ground-State Mulliken Net Atomic Charges

     Atom                 Charge (a.u.)
  ----------------------------------------
      1 H                     0.052987
      2 C                    -0.105984
      3 H                     0.053000
      4 C                    -0.105982
      5 H                     0.052997
      6 H                     0.052982
  ----------------------------------------
  Sum of atomic charges =     0.000000

                    Cartesian Multipole Moments
 -----------------------------------------------------------------
    Charge (ESU x 10^10)
                -0.0000
    Dipole Moment (Debye)
         X       0.0078      Y       0.0098      Z      -0.1620
       Tot       0.1625
    Quadrupole Moments (Debye-Ang)
        XX     -12.2878     XY      -0.1196     YY     -12.2784
        XZ       0.4082     YZ       0.2078     ZZ     -15.6060

 Total job time:  124.84s(wall), 377.85s(cpu)
        *  Thank you very much for using Q-Chem.  Have a nice day.  *
