 Q-Chem 5.4 (devel), Q-Chem, Inc., Pleasanton, CA (2021)
 Q-Chem 5.4.1 for Intel X86 EM64T Linux

User input:
--------------------------------------------------------------
$comment
generated from CCJob.Templates
$end

$rem
sym_ignore = true
method = adc(2)
ee_states = 10
basis = cc-pVDZ
mem_static = 1024
mem_total = 40000
adc_davidson_maxiter = 900
adc_davidson_conv = 6
adc_print = 3
adc_prop_es = true
adc_prop_es2es = true
adc_prop_tpa = true
molden_format = True
state_analysis = true
print_orbitals = 15
gen_scfman = false
fde_export_density = true
fde_details = 3
$end

$molecule
0 1
H -0.0348278765 -0.2442097827 0.0636489606
C -1.0765972949 -0.5242748755 -0.0023551776
H -1.313264467 -1.5767591607 -0.0757276926
C -2.083634118 0.3926884087 0.0061254933
H -1.8137616575 1.4459188338 0.0804456828
H -3.085977293 0.114931858 -0.0593381042
$end
--------------------------------------------------------------

             Standard Nuclear Orientation (Angstroms)
    I     Atom           X                Y                Z
 ----------------------------------------------------------------
    1      H      -0.0348278765    -0.2442097827     0.0636489606
    2      C      -1.0765972949    -0.5242748755    -0.0023551776
    3      H      -1.3132644670    -1.5767591607    -0.0757276926
    4      C      -2.0836341180     0.3926884087     0.0061254933
    5      H      -1.8137616575     1.4459188338     0.0804456828
    6      H      -3.0859772930     0.1149318580    -0.0593381042
 ----------------------------------------------------------------

   11     -78.0363852107      6.81E-09 Convergence criterion met
 Total energy in the final basis set = -78.03638521
  Excited state 1 (singlet, A)                                     [converged]
  Term symbol:  2 (1) A                                     R^2 =  1.78240e-13
  Excitation energy:                                               8.486750 eV
  Excited state 2 (singlet, A)                                     [converged]
  Term symbol:  3 (1) A                                     R^2 =  8.54385e-14
  Excitation energy:                                               9.012394 eV
  Excited state 3 (singlet, A)                                     [converged]
  Term symbol:  4 (1) A                                     R^2 =  1.95921e-13
  Excitation energy:                                               9.055575 eV
  Excited state 4 (singlet, A)                                     [converged]
  Term symbol:  5 (1) A                                     R^2 =  4.71708e-13
  Excitation energy:                                               9.819321 eV
  Excited state 5 (singlet, A)                                     [converged]
  Term symbol:  6 (1) A                                     R^2 =  3.30496e-13
  Excitation energy:                                              10.008339 eV
  Excited state 6 (singlet, A)                                     [converged]
  Term symbol:  7 (1) A                                     R^2 =  4.74043e-13
  Excitation energy:                                              10.358492 eV
  Excited state 7 (singlet, A)                                     [converged]
  Term symbol:  8 (1) A                                     R^2 =  4.99592e-13
  Excitation energy:                                              11.692421 eV
  Excited state 8 (singlet, A)                                     [converged]
  Term symbol:  9 (1) A                                     R^2 =  3.52845e-13
  Excitation energy:                                              12.013209 eV
  Excited state 9 (singlet, A)                                     [converged]
  Term symbol:  10 (1) A                                    R^2 =  5.69218e-13
  Excitation energy:                                              12.262624 eV
  Excited state 10 (singlet, A)                                     [converged]
  Term symbol:  11 (1) A                                    R^2 =  5.54062e-07
  Excitation energy:                                              12.854001 eV
  Excitation energy:                                               0.525643 eV
  Excitation energy:                                               0.568825 eV
  Excitation energy:                                               0.043181 eV
  Excitation energy:                                               1.332571 eV
  Excitation energy:                                               0.806927 eV
  Excitation energy:                                               0.763746 eV
  Excitation energy:                                               1.521588 eV
  Excitation energy:                                               0.995945 eV
  Excitation energy:                                               0.952764 eV
  Excitation energy:                                               0.189018 eV
  Excitation energy:                                               1.871742 eV
  Excitation energy:                                               1.346098 eV
  Excitation energy:                                               1.302917 eV
  Excitation energy:                                               0.539171 eV
  Excitation energy:                                               0.350154 eV
  Excitation energy:                                               3.205671 eV
  Excitation energy:                                               2.680027 eV
  Excitation energy:                                               2.636846 eV
  Excitation energy:                                               1.873100 eV
  Excitation energy:                                               1.684082 eV
  Excitation energy:                                               1.333929 eV
  Excitation energy:                                               3.526459 eV
  Excitation energy:                                               3.000815 eV
  Excitation energy:                                               2.957634 eV
  Excitation energy:                                               2.193888 eV
  Excitation energy:                                               2.004871 eV
  Excitation energy:                                               1.654717 eV
  Excitation energy:                                               0.320788 eV
  Excitation energy:                                               3.775874 eV
  Excitation energy:                                               3.250230 eV
  Excitation energy:                                               3.207049 eV
  Excitation energy:                                               2.443303 eV
  Excitation energy:                                               2.254286 eV
  Excitation energy:                                               1.904132 eV
  Excitation energy:                                               0.570203 eV
  Excitation energy:                                               0.249415 eV
  Excitation energy:                                               4.367251 eV
  Excitation energy:                                               3.841608 eV
  Excitation energy:                                               3.798426 eV
  Excitation energy:                                               3.034680 eV
  Excitation energy:                                               2.845663 eV
  Excitation energy:                                               2.495509 eV
  Excitation energy:                                               1.161580 eV
  Excitation energy:                                               0.840792 eV
  Excitation energy:                                               0.591377 eV

                    Orbital Energies (a.u.)
 --------------------------------------------------------------

 Alpha MOs
 -- Occupied --
-11.2388 -11.2356  -1.0252  -0.7950  -0.6428  -0.5763  -0.5116  -0.3670

          Ground-State Mulliken Net Atomic Charges

     Atom                 Charge (a.u.)
  ----------------------------------------
      1 H                     0.051294
      2 C                    -0.107821
      3 H                     0.048410
      4 C                    -0.082995
      5 H                     0.050668
      6 H                     0.040444
  ----------------------------------------
  Sum of atomic charges =     0.000000

                    Cartesian Multipole Moments
 -----------------------------------------------------------------
    Charge (ESU x 10^10)
                 0.0000
    Dipole Moment (Debye)
         X      -0.0047      Y      -0.0118      Z      -0.0024
       Tot       0.0129
    Quadrupole Moments (Debye-Ang)
        XX     -12.0686     XY      -0.0025     YY     -12.3599
        XZ       0.1716     YZ       0.1932     ZZ     -15.6190

 Total job time:  77.37s(wall), 254.82s(cpu)
        *  Thank you very much for using Q-Chem.  Have a nice day.  *
