 Q-Chem 5.4 (devel), Q-Chem, Inc., Pleasanton, CA (2021)
 Q-Chem 5.4.1 for Intel X86 EM64T Linux

User input:
--------------------------------------------------------------
$comment
generated from CCJob.Templates
$end

$rem
sym_ignore = true
method = adc(2)
ee_states = 10
basis = cc-pVDZ
mem_static = 1024
mem_total = 40000
adc_davidson_maxiter = 900
adc_davidson_conv = 6
adc_print = 3
adc_prop_es = true
adc_prop_es2es = true
adc_prop_tpa = true
molden_format = True
state_analysis = true
print_orbitals = 15
gen_scfman = false
fde_export_density = true
fde_details = 3
$end

$molecule
0 1
H -0.058234213684172045 -0.2562118654177333 0.06281082542094685
C -1.0653999474533493 -0.5112909759855423 -0.0009724604726157327
H -1.3085412603167559 -1.6300321102683513 -0.0802812183649954
C -2.0572857201458863 0.38069911908637366 0.005218599972657509
H -1.8141612082836494 1.499512319366041 0.08451044386486589
H -3.0644045170180587 0.12565767491718183 -0.05848502812096355
$end
--------------------------------------------------------------

             Standard Nuclear Orientation (Angstroms)
    I     Atom           X                Y                Z
 ----------------------------------------------------------------
    1      H      -0.0582342137    -0.2562118654     0.0628108254
    2      C      -1.0653999475    -0.5112909760    -0.0009724605
    3      H      -1.3085412603    -1.6300321103    -0.0802812184
    4      C      -2.0572857201     0.3806991191     0.0052186000
    5      H      -1.8141612083     1.4995123194     0.0845104439
    6      H      -3.0644045170     0.1256576749    -0.0584850281
 ----------------------------------------------------------------

   11     -78.0320448289      1.69E-09 Convergence criterion met
 Total energy in the final basis set = -78.03204483
  Excited state 1 (singlet, A)                                     [converged]
  Term symbol:  2 (1) A                                     R^2 =  4.14003e-13
  Excitation energy:                                               8.727501 eV
  Excited state 2 (singlet, A)                                     [converged]
  Term symbol:  3 (1) A                                     R^2 =  3.47510e-13
  Excitation energy:                                               8.851493 eV
  Excited state 3 (singlet, A)                                     [converged]
  Term symbol:  4 (1) A                                     R^2 =  6.78324e-13
  Excitation energy:                                               9.129431 eV
  Excited state 4 (singlet, A)                                     [converged]
  Term symbol:  5 (1) A                                     R^2 =  1.49856e-13
  Excitation energy:                                               9.599525 eV
  Excited state 5 (singlet, A)                                     [converged]
  Term symbol:  6 (1) A                                     R^2 =  4.10467e-13
  Excitation energy:                                              10.277915 eV
  Excited state 6 (singlet, A)                                     [converged]
  Term symbol:  7 (1) A                                     R^2 =  5.41122e-13
  Excitation energy:                                              10.612017 eV
  Excited state 7 (singlet, A)                                     [converged]
  Term symbol:  8 (1) A                                     R^2 =  3.99287e-09
  Excitation energy:                                              11.375735 eV
  Excited state 8 (singlet, A)                                     [converged]
  Term symbol:  9 (1) A                                     R^2 =  1.56856e-09
  Excitation energy:                                              12.023645 eV
  Excited state 9 (singlet, A)                                     [converged]
  Term symbol:  10 (1) A                                    R^2 =  5.53207e-07
  Excitation energy:                                              12.228288 eV
  Excited state 10 (singlet, A)                                     [converged]
  Term symbol:  11 (1) A                                    R^2 =  1.12841e-08
  Excitation energy:                                              12.318185 eV
  Excitation energy:                                               0.123992 eV
  Excitation energy:                                               0.401930 eV
  Excitation energy:                                               0.277937 eV
  Excitation energy:                                               0.872024 eV
  Excitation energy:                                               0.748031 eV
  Excitation energy:                                               0.470094 eV
  Excitation energy:                                               1.550415 eV
  Excitation energy:                                               1.426422 eV
  Excitation energy:                                               1.148485 eV
  Excitation energy:                                               0.678391 eV
  Excitation energy:                                               1.884516 eV
  Excitation energy:                                               1.760524 eV
  Excitation energy:                                               1.482586 eV
  Excitation energy:                                               1.012492 eV
  Excitation energy:                                               0.334102 eV
  Excitation energy:                                               2.648234 eV
  Excitation energy:                                               2.524241 eV
  Excitation energy:                                               2.246304 eV
  Excitation energy:                                               1.776210 eV
  Excitation energy:                                               1.097819 eV
  Excitation energy:                                               0.763718 eV
  Excitation energy:                                               3.296144 eV
  Excitation energy:                                               3.172152 eV
  Excitation energy:                                               2.894214 eV
  Excitation energy:                                               2.424120 eV
  Excitation energy:                                               1.745730 eV
  Excitation energy:                                               1.411628 eV
  Excitation energy:                                               0.647910 eV
  Excitation energy:                                               3.500787 eV
  Excitation energy:                                               3.376795 eV
  Excitation energy:                                               3.098858 eV
  Excitation energy:                                               2.628764 eV
  Excitation energy:                                               1.950373 eV
  Excitation energy:                                               1.616271 eV
  Excitation energy:                                               0.852554 eV
  Excitation energy:                                               0.204643 eV
  Excitation energy:                                               3.590684 eV
  Excitation energy:                                               3.466691 eV
  Excitation energy:                                               3.188754 eV
  Excitation energy:                                               2.718660 eV
  Excitation energy:                                               2.040269 eV
  Excitation energy:                                               1.706168 eV
  Excitation energy:                                               0.942450 eV
  Excitation energy:                                               0.294540 eV
  Excitation energy:                                               0.089896 eV

                    Orbital Energies (a.u.)
 --------------------------------------------------------------

 Alpha MOs
 -- Occupied --
-11.2394 -11.2377  -1.0307  -0.7906  -0.6321  -0.5883  -0.4949  -0.3748

          Ground-State Mulliken Net Atomic Charges

     Atom                 Charge (a.u.)
  ----------------------------------------
      1 H                     0.039739
      2 C                    -0.098566
      3 H                     0.058834
      4 C                    -0.098563
      5 H                     0.058838
      6 H                     0.039717
  ----------------------------------------
  Sum of atomic charges =     0.000000

                    Cartesian Multipole Moments
 -----------------------------------------------------------------
    Charge (ESU x 10^10)
                 0.0000
    Dipole Moment (Debye)
         X      -0.0000      Y      -0.0001      Z       0.0000
       Tot       0.0001
    Quadrupole Moments (Debye-Ang)
        XX     -12.0935     XY      -0.0879     YY     -12.4456
        XZ       0.1644     YZ       0.1882     ZZ     -15.6101

 Total job time:  138.51s(wall), 401.98s(cpu)
        *  Thank you very much for using Q-Chem.  Have a nice day.  *
