 Q-Chem 5.4 (devel), Q-Chem, Inc., Pleasanton, CA (2021)
 Q-Chem 5.4.1 for Intel X86 EM64T Linux

User input:
--------------------------------------------------------------
$comment
generated from CCJob.Templates
$end

$rem
sym_ignore = true
method = adc(2)
ee_states = 10
basis = cc-pVDZ
mem_static = 1024
mem_total = 40000
adc_davidson_maxiter = 900
adc_davidson_conv = 6
adc_print = 3
adc_prop_es = true
adc_prop_es2es = true
adc_prop_tpa = true
molden_format = True
state_analysis = true
print_orbitals = 15
gen_scfman = false
fde_export_density = true
fde_details = 3
$end

$molecule
0 1
H -0.0348278765 -0.2442097827 0.0636489606
C -1.0765972949 -0.5242748755 -0.0023551776
H -1.313264467 -1.5767591607 -0.0757276926
C -2.043634118 0.3926884087 0.0061254933
H -1.8137616575 1.4859188338 0.0804456828
H -3.085977293 0.114931858 -0.0593381042
$end
--------------------------------------------------------------

             Standard Nuclear Orientation (Angstroms)
    I     Atom           X                Y                Z
 ----------------------------------------------------------------
    1      H      -0.0348278765    -0.2442097827     0.0636489606
    2      C      -1.0765972949    -0.5242748755    -0.0023551776
    3      H      -1.3132644670    -1.5767591607    -0.0757276926
    4      C      -2.0436341180     0.3926884087     0.0061254933
    5      H      -1.8137616575     1.4859188338     0.0804456828
    6      H      -3.0859772930     0.1149318580    -0.0593381042
 ----------------------------------------------------------------

   11     -78.0391001264      6.11E-09 Convergence criterion met
 Total energy in the final basis set = -78.03910013
  Excited state 1 (singlet, A)                                     [converged]
  Term symbol:  2 (1) A                                     R^2 =  4.43806e-13
  Excitation energy:                                               8.739341 eV
  Excited state 2 (singlet, A)                                     [converged]
  Term symbol:  3 (1) A                                     R^2 =  4.39055e-13
  Excitation energy:                                               8.991179 eV
  Excited state 3 (singlet, A)                                     [converged]
  Term symbol:  4 (1) A                                     R^2 =  5.66569e-13
  Excitation energy:                                               9.135904 eV
  Excited state 4 (singlet, A)                                     [converged]
  Term symbol:  5 (1) A                                     R^2 =  6.61384e-13
  Excitation energy:                                               9.762998 eV
  Excited state 5 (singlet, A)                                     [converged]
  Term symbol:  6 (1) A                                     R^2 =  3.34611e-13
  Excitation energy:                                              10.179776 eV
  Excited state 6 (singlet, A)                                     [converged]
  Term symbol:  7 (1) A                                     R^2 =  2.82600e-13
  Excitation energy:                                              10.517488 eV
  Excited state 7 (singlet, A)                                     [converged]
  Term symbol:  8 (1) A                                     R^2 =  5.15069e-10
  Excitation energy:                                              11.461409 eV
  Excited state 8 (singlet, A)                                     [converged]
  Term symbol:  9 (1) A                                     R^2 =  7.48156e-10
  Excitation energy:                                              12.116548 eV
  Excited state 9 (singlet, A)                                     [converged]
  Term symbol:  10 (1) A                                    R^2 =  9.98204e-09
  Excitation energy:                                              12.376528 eV
  Excited state 10 (singlet, A)                                     [converged]
  Term symbol:  11 (1) A                                    R^2 =  8.40012e-07
  Excitation energy:                                              12.517982 eV
  Excitation energy:                                               0.251838 eV
  Excitation energy:                                               0.396564 eV
  Excitation energy:                                               0.144725 eV
  Excitation energy:                                               1.023658 eV
  Excitation energy:                                               0.771819 eV
  Excitation energy:                                               0.627094 eV
  Excitation energy:                                               1.440435 eV
  Excitation energy:                                               1.188597 eV
  Excitation energy:                                               1.043871 eV
  Excitation energy:                                               0.416777 eV
  Excitation energy:                                               1.778148 eV
  Excitation energy:                                               1.526309 eV
  Excitation energy:                                               1.381584 eV
  Excitation energy:                                               0.754490 eV
  Excitation energy:                                               0.337713 eV
  Excitation energy:                                               2.722068 eV
  Excitation energy:                                               2.470230 eV
  Excitation energy:                                               2.325504 eV
  Excitation energy:                                               1.698410 eV
  Excitation energy:                                               1.281633 eV
  Excitation energy:                                               0.943921 eV
  Excitation energy:                                               3.377208 eV
  Excitation energy:                                               3.125369 eV
  Excitation energy:                                               2.980644 eV
  Excitation energy:                                               2.353550 eV
  Excitation energy:                                               1.936773 eV
  Excitation energy:                                               1.599060 eV
  Excitation energy:                                               0.655140 eV
  Excitation energy:                                               3.637187 eV
  Excitation energy:                                               3.385348 eV
  Excitation energy:                                               3.240623 eV
  Excitation energy:                                               2.613529 eV
  Excitation energy:                                               2.196752 eV
  Excitation energy:                                               1.859039 eV
  Excitation energy:                                               0.915119 eV
  Excitation energy:                                               0.259979 eV
  Excitation energy:                                               3.778641 eV
  Excitation energy:                                               3.526803 eV
  Excitation energy:                                               3.382078 eV
  Excitation energy:                                               2.754984 eV
  Excitation energy:                                               2.338206 eV
  Excitation energy:                                               2.000494 eV
  Excitation energy:                                               1.056573 eV
  Excitation energy:                                               0.401434 eV
  Excitation energy:                                               0.141455 eV

                    Orbital Energies (a.u.)
 --------------------------------------------------------------

 Alpha MOs
 -- Occupied --
-11.2387 -11.2347  -1.0310  -0.7864  -0.6378  -0.5812  -0.5011  -0.3744

          Ground-State Mulliken Net Atomic Charges

     Atom                 Charge (a.u.)
  ----------------------------------------
      1 H                     0.048753
      2 C                    -0.088829
      3 H                     0.048398
      4 C                    -0.114415
      5 H                     0.057011
      6 H                     0.049082
  ----------------------------------------
  Sum of atomic charges =     0.000000

                    Cartesian Multipole Moments
 -----------------------------------------------------------------
    Charge (ESU x 10^10)
                 0.0000
    Dipole Moment (Debye)
         X      -0.0041      Y      -0.0185      Z      -0.0018
       Tot       0.0190
    Quadrupole Moments (Debye-Ang)
        XX     -12.2257     XY      -0.0283     YY     -12.2717
        XZ       0.1587     YZ       0.1929     ZZ     -15.5900

 Total job time:  69.91s(wall), 240.22s(cpu)
        *  Thank you very much for using Q-Chem.  Have a nice day.  *
