 Q-Chem 5.4 (devel), Q-Chem, Inc., Pleasanton, CA (2021)
 Q-Chem 5.4.1 for Intel X86 EM64T Linux

User input:
--------------------------------------------------------------
$comment
generated from CCJob.Templates
$end

$rem
sym_ignore = true
method = adc(2)
ee_states = 10
basis = cc-pVDZ
mem_static = 1024
mem_total = 40000
adc_davidson_maxiter = 900
adc_davidson_conv = 6
adc_print = 3
adc_prop_es = true
adc_prop_es2es = true
adc_prop_tpa = true
molden_format = True
state_analysis = true
print_orbitals = 15
gen_scfman = false
fde_export_density = true
fde_details = 3
$end

$molecule
0 1
H 0.015058350315012025 -0.23765362439349894 0.06745018567541658
C -1.090676908862781 -0.5378260974664695 -0.003785180629805468
H -1.2937578194970536 -1.5561006662307069 -0.0751115380823893
C -2.057510282860351 0.3804507162359737 0.005190199670582346
H -1.8140731266986176 1.4993764072624027 0.08450348441702898
H -3.0645725091919815 0.12572367690467834 -0.0584834276254366
$end
--------------------------------------------------------------

             Standard Nuclear Orientation (Angstroms)
    I     Atom           X                Y                Z
 ----------------------------------------------------------------
    1      H       0.0150583503    -0.2376536244     0.0674501857
    2      C      -1.0906769089    -0.5378260975    -0.0037851806
    3      H      -1.2937578195    -1.5561006662    -0.0751115381
    4      C      -2.0575102829     0.3804507162     0.0051901997
    5      H      -1.8140731267     1.4993764073     0.0845034844
    6      H      -3.0645725092     0.1257236769    -0.0584834276
 ----------------------------------------------------------------

   11     -78.0319978050      3.13E-09 Convergence criterion met
 Total energy in the final basis set = -78.03199780
  Excited state 1 (singlet, A)                                     [converged]
  Term symbol:  2 (1) A                                     R^2 =  3.21247e-13
  Excitation energy:                                               8.732938 eV
  Excited state 2 (singlet, A)                                     [converged]
  Term symbol:  3 (1) A                                     R^2 =  3.16711e-13
  Excitation energy:                                               8.868596 eV
  Excited state 3 (singlet, A)                                     [converged]
  Term symbol:  4 (1) A                                     R^2 =  4.38770e-13
  Excitation energy:                                               9.064566 eV
  Excited state 4 (singlet, A)                                     [converged]
  Term symbol:  5 (1) A                                     R^2 =  4.49063e-13
  Excitation energy:                                               9.842573 eV
  Excited state 5 (singlet, A)                                     [converged]
  Term symbol:  6 (1) A                                     R^2 =  3.69214e-13
  Excitation energy:                                              10.138628 eV
  Excited state 6 (singlet, A)                                     [converged]
  Term symbol:  7 (1) A                                     R^2 =  3.97981e-13
  Excitation energy:                                              10.504304 eV
  Excited state 7 (singlet, A)                                     [converged]
  Term symbol:  8 (1) A                                     R^2 =  3.44136e-11
  Excitation energy:                                              11.328123 eV
  Excited state 8 (singlet, A)                                     [converged]
  Term symbol:  9 (1) A                                     R^2 =  3.37414e-08
  Excitation energy:                                              12.078317 eV
  Excited state 9 (singlet, A)                                     [converged]
  Term symbol:  10 (1) A                                    R^2 =  6.69127e-07
  Excitation energy:                                              12.339957 eV
  Excited state 10 (singlet, A)                                     [converged]
  Term symbol:  11 (1) A                                    R^2 =  2.15354e-08
  Excitation energy:                                              12.515650 eV
  Excitation energy:                                               0.135659 eV
  Excitation energy:                                               0.331628 eV
  Excitation energy:                                               0.195969 eV
  Excitation energy:                                               1.109635 eV
  Excitation energy:                                               0.973976 eV
  Excitation energy:                                               0.778007 eV
  Excitation energy:                                               1.405690 eV
  Excitation energy:                                               1.270031 eV
  Excitation energy:                                               1.074062 eV
  Excitation energy:                                               0.296055 eV
  Excitation energy:                                               1.771366 eV
  Excitation energy:                                               1.635708 eV
  Excitation energy:                                               1.439738 eV
  Excitation energy:                                               0.661731 eV
  Excitation energy:                                               0.365676 eV
  Excitation energy:                                               2.595185 eV
  Excitation energy:                                               2.459526 eV
  Excitation energy:                                               2.263557 eV
  Excitation energy:                                               1.485550 eV
  Excitation energy:                                               1.189495 eV
  Excitation energy:                                               0.823819 eV
  Excitation energy:                                               3.345379 eV
  Excitation energy:                                               3.209720 eV
  Excitation energy:                                               3.013751 eV
  Excitation energy:                                               2.235744 eV
  Excitation energy:                                               1.939689 eV
  Excitation energy:                                               1.574013 eV
  Excitation energy:                                               0.750194 eV
  Excitation energy:                                               3.607020 eV
  Excitation energy:                                               3.471361 eV
  Excitation energy:                                               3.275392 eV
  Excitation energy:                                               2.497385 eV
  Excitation energy:                                               2.201330 eV
  Excitation energy:                                               1.835653 eV
  Excitation energy:                                               1.011835 eV
  Excitation energy:                                               0.261641 eV
  Excitation energy:                                               3.782713 eV
  Excitation energy:                                               3.647054 eV
  Excitation energy:                                               3.451085 eV
  Excitation energy:                                               2.673078 eV
  Excitation energy:                                               2.377023 eV
  Excitation energy:                                               2.011346 eV
  Excitation energy:                                               1.187528 eV
  Excitation energy:                                               0.437334 eV
  Excitation energy:                                               0.175693 eV

                    Orbital Energies (a.u.)
 --------------------------------------------------------------

 Alpha MOs
 -- Occupied --
-11.2390 -11.2374  -1.0311  -0.7889  -0.6387  -0.5793  -0.4980  -0.3748

          Ground-State Mulliken Net Atomic Charges

     Atom                 Charge (a.u.)
  ----------------------------------------
      1 H                     0.061373
      2 C                    -0.099901
      3 H                     0.038495
      4 C                    -0.099800
      5 H                     0.061362
      6 H                     0.038471
  ----------------------------------------
  Sum of atomic charges =     0.000000

                    Cartesian Multipole Moments
 -----------------------------------------------------------------
    Charge (ESU x 10^10)
                -0.0000
    Dipole Moment (Debye)
         X      -0.0570      Y      -0.0598      Z      -0.0063
       Tot       0.0828
    Quadrupole Moments (Debye-Ang)
        XX     -12.0736     XY      -0.0023     YY     -12.2568
        XZ       0.1658     YZ       0.1987     ZZ     -15.6074

 Total job time:  147.36s(wall), 457.80s(cpu)
        *  Thank you very much for using Q-Chem.  Have a nice day.  *
