 Q-Chem 5.4 (devel), Q-Chem, Inc., Pleasanton, CA (2021)
 Q-Chem 5.4.1 for Intel X86 EM64T Linux

User input:
--------------------------------------------------------------
$comment
generated from CCJob.Templates
$end

$rem
sym_ignore = true
method = adc(2)
ee_states = 10
basis = cc-pVDZ
mem_static = 1024
mem_total = 40000
adc_davidson_maxiter = 900
adc_davidson_conv = 6
adc_print = 3
adc_prop_es = true
adc_prop_es2es = true
adc_prop_tpa = true
molden_format = True
state_analysis = true
print_orbitals = 15
gen_scfman = false
fde_export_density = true
fde_details = 3
$end

$molecule
0 1
H -0.0348278765 -0.2442097827 0.0636489606
C -1.0765972949 -0.5242748755 -0.0023551776
H -1.313264467 -1.5767591607 -0.0757276926
C -2.043634118 0.3926884087 0.0061254933
H -1.8137616575 1.4459188338 0.0804456828
H -3.095977293 0.114931858 -0.0593381042
$end
--------------------------------------------------------------

             Standard Nuclear Orientation (Angstroms)
    I     Atom           X                Y                Z
 ----------------------------------------------------------------
    1      H      -0.0348278765    -0.2442097827     0.0636489606
    2      C      -1.0765972949    -0.5242748755    -0.0023551776
    3      H      -1.3132644670    -1.5767591607    -0.0757276926
    4      C      -2.0436341180     0.3926884087     0.0061254933
    5      H      -1.8137616575     1.4459188338     0.0804456828
    6      H      -3.0959772930     0.1149318580    -0.0593381042
 ----------------------------------------------------------------

   11     -78.0399018031      8.12E-09 Convergence criterion met
 Total energy in the final basis set = -78.03990180
  Excited state 1 (singlet, A)                                     [converged]
  Term symbol:  2 (1) A                                     R^2 =  2.55462e-13
  Excitation energy:                                               8.737616 eV
  Excited state 2 (singlet, A)                                     [converged]
  Term symbol:  3 (1) A                                     R^2 =  1.77704e-13
  Excitation energy:                                               9.039434 eV
  Excited state 3 (singlet, A)                                     [converged]
  Term symbol:  4 (1) A                                     R^2 =  1.17146e-13
  Excitation energy:                                               9.163358 eV
  Excited state 4 (singlet, A)                                     [converged]
  Term symbol:  5 (1) A                                     R^2 =  2.04473e-13
  Excitation energy:                                               9.816466 eV
  Excited state 5 (singlet, A)                                     [converged]
  Term symbol:  6 (1) A                                     R^2 =  1.75949e-13
  Excitation energy:                                              10.204269 eV
  Excited state 6 (singlet, A)                                     [converged]
  Term symbol:  7 (1) A                                     R^2 =  3.38318e-13
  Excitation energy:                                              10.530681 eV
  Excited state 7 (singlet, A)                                     [converged]
  Term symbol:  8 (1) A                                     R^2 =  5.34745e-10
  Excitation energy:                                              11.534386 eV
  Excited state 8 (singlet, A)                                     [converged]
  Term symbol:  9 (1) A                                     R^2 =  1.08636e-10
  Excitation energy:                                              12.153157 eV
  Excited state 9 (singlet, A)                                     [converged]
  Term symbol:  10 (1) A                                    R^2 =  1.48148e-09
  Excitation energy:                                              12.406573 eV
  Excited state 10 (singlet, A)                                     [converged]
  Term symbol:  11 (1) A                                    R^2 =  6.57423e-07
  Excitation energy:                                              12.615821 eV
  Excitation energy:                                               0.301818 eV
  Excitation energy:                                               0.425742 eV
  Excitation energy:                                               0.123924 eV
  Excitation energy:                                               1.078849 eV
  Excitation energy:                                               0.777032 eV
  Excitation energy:                                               0.653108 eV
  Excitation energy:                                               1.466652 eV
  Excitation energy:                                               1.164835 eV
  Excitation energy:                                               1.040911 eV
  Excitation energy:                                               0.387803 eV
  Excitation energy:                                               1.793065 eV
  Excitation energy:                                               1.491247 eV
  Excitation energy:                                               1.367323 eV
  Excitation energy:                                               0.714215 eV
  Excitation energy:                                               0.326412 eV
  Excitation energy:                                               2.796770 eV
  Excitation energy:                                               2.494952 eV
  Excitation energy:                                               2.371028 eV
  Excitation energy:                                               1.717921 eV
  Excitation energy:                                               1.330117 eV
  Excitation energy:                                               1.003705 eV
  Excitation energy:                                               3.415541 eV
  Excitation energy:                                               3.113724 eV
  Excitation energy:                                               2.989800 eV
  Excitation energy:                                               2.336692 eV
  Excitation energy:                                               1.948889 eV
  Excitation energy:                                               1.622477 eV
  Excitation energy:                                               0.618771 eV
  Excitation energy:                                               3.668957 eV
  Excitation energy:                                               3.367139 eV
  Excitation energy:                                               3.243215 eV
  Excitation energy:                                               2.590108 eV
  Excitation energy:                                               2.202304 eV
  Excitation energy:                                               1.875892 eV
  Excitation energy:                                               0.872187 eV
  Excitation energy:                                               0.253416 eV
  Excitation energy:                                               3.878204 eV
  Excitation energy:                                               3.576387 eV
  Excitation energy:                                               3.452463 eV
  Excitation energy:                                               2.799355 eV
  Excitation energy:                                               2.411552 eV
  Excitation energy:                                               2.085140 eV
  Excitation energy:                                               1.081434 eV
  Excitation energy:                                               0.462663 eV
  Excitation energy:                                               0.209248 eV

                    Orbital Energies (a.u.)
 --------------------------------------------------------------

 Alpha MOs
 -- Occupied --
-11.2358 -11.2339  -1.0320  -0.7889  -0.6403  -0.5817  -0.5038  -0.3741

          Ground-State Mulliken Net Atomic Charges

     Atom                 Charge (a.u.)
  ----------------------------------------
      1 H                     0.048311
      2 C                    -0.093529
      3 H                     0.047816
      4 C                    -0.100471
      5 H                     0.047511
      6 H                     0.050362
  ----------------------------------------
  Sum of atomic charges =     0.000000

                    Cartesian Multipole Moments
 -----------------------------------------------------------------
    Charge (ESU x 10^10)
                -0.0000
    Dipole Moment (Debye)
         X       0.0026      Y       0.0026      Z       0.0018
       Tot       0.0041
    Quadrupole Moments (Debye-Ang)
        XX     -12.2272     XY      -0.0614     YY     -12.2737
        XZ       0.1517     YZ       0.1936     ZZ     -15.5532

 Total job time:  76.42s(wall), 215.55s(cpu)
        *  Thank you very much for using Q-Chem.  Have a nice day.  *
