 Q-Chem 5.4 (devel), Q-Chem, Inc., Pleasanton, CA (2021)
 Q-Chem 5.4.1 for Intel X86 EM64T Linux

User input:
--------------------------------------------------------------
$comment
generated from CCJob.Templates
$end

$rem
sym_ignore = true
method = adc(2)
ee_states = 10
basis = cc-pVDZ
mem_static = 1024
mem_total = 40000
adc_davidson_maxiter = 900
adc_davidson_conv = 6
adc_print = 3
adc_prop_es = true
adc_prop_es2es = true
adc_prop_tpa = true
molden_format = True
state_analysis = true
print_orbitals = 15
gen_scfman = false
fde_export_density = true
fde_details = 3
$end

$molecule
0 1
H -0.020845643368318956 -0.24867992246269305 0.06505766527712566
C -1.0771194985384158 -0.5251728035490899 -0.002370496402469795
H -1.2994622281251442 -1.5936563804030108 -0.07764945848464473
C -2.045551625061616 0.39459695864912026 0.006617407902460545
H -1.8232477284747657 1.4630922575029803 0.08187631998468303
H -3.1018357473316613 0.11811493596261508 -0.060732211977133584
$end
--------------------------------------------------------------

             Standard Nuclear Orientation (Angstroms)
    I     Atom           X                Y                Z
 ----------------------------------------------------------------
    1      H      -0.0208456434    -0.2486799225     0.0650576653
    2      C      -1.0771194985    -0.5251728035    -0.0023704964
    3      H      -1.2994622281    -1.5936563804    -0.0776494585
    4      C      -2.0455516251     0.3945969586     0.0066174079
    5      H      -1.8232477285     1.4630922575     0.0818763200
    6      H      -3.1018357473     0.1181149360    -0.0607322120
 ----------------------------------------------------------------

   10     -78.0395904673      3.84E-09 Convergence criterion met
 Total energy in the final basis set = -78.03959047
  Excited state 1 (singlet, A)                                     [converged]
  Term symbol:  2 (1) A                                     R^2 =  1.72530e-10
  Excitation energy:                                               8.712454 eV
  Excited state 2 (singlet, A)                                     [converged]
  Term symbol:  3 (1) A                                     R^2 =  1.04841e-12
  Excitation energy:                                               8.945881 eV
  Excited state 3 (singlet, A)                                     [converged]
  Term symbol:  4 (1) A                                     R^2 =  1.39580e-11
  Excitation energy:                                               9.136525 eV
  Excited state 4 (singlet, A)                                     [converged]
  Term symbol:  5 (1) A                                     R^2 =  2.21855e-12
  Excitation energy:                                               9.735342 eV
  Excited state 5 (singlet, A)                                     [converged]
  Term symbol:  6 (1) A                                     R^2 =  4.43746e-11
  Excitation energy:                                              10.146390 eV
  Excited state 6 (singlet, A)                                     [converged]
  Term symbol:  7 (1) A                                     R^2 =  2.38988e-10
  Excitation energy:                                              10.506440 eV
  Excited state 7 (singlet, A)                                     [converged]
  Term symbol:  8 (1) A                                     R^2 =  4.70555e-07
  Excitation energy:                                              11.443469 eV
  Excited state 8 (singlet, A)                                     [converged]
  Term symbol:  9 (1) A                                     R^2 =  1.03363e-08
  Excitation energy:                                              12.048754 eV
  Excited state 9 (singlet, A)                                     [converged]
  Term symbol:  10 (1) A                                    R^2 =  2.57394e-08
  Excitation energy:                                              12.331723 eV
  Excited state 10 (singlet, A)                                     [converged]
  Term symbol:  11 (1) A                                    R^2 =  4.59459e-07
  Excitation energy:                                              12.488802 eV
  Excitation energy:                                               0.233427 eV
  Excitation energy:                                               0.424071 eV
  Excitation energy:                                               0.190645 eV
  Excitation energy:                                               1.022888 eV
  Excitation energy:                                               0.789461 eV
  Excitation energy:                                               0.598816 eV
  Excitation energy:                                               1.433936 eV
  Excitation energy:                                               1.200509 eV
  Excitation energy:                                               1.009865 eV
  Excitation energy:                                               0.411048 eV
  Excitation energy:                                               1.793986 eV
  Excitation energy:                                               1.560559 eV
  Excitation energy:                                               1.369915 eV
  Excitation energy:                                               0.771098 eV
  Excitation energy:                                               0.360050 eV
  Excitation energy:                                               2.731015 eV
  Excitation energy:                                               2.497588 eV
  Excitation energy:                                               2.306944 eV
  Excitation energy:                                               1.708127 eV
  Excitation energy:                                               1.297079 eV
  Excitation energy:                                               0.937029 eV
  Excitation energy:                                               3.336300 eV
  Excitation energy:                                               3.102873 eV
  Excitation energy:                                               2.912229 eV
  Excitation energy:                                               2.313412 eV
  Excitation energy:                                               1.902364 eV
  Excitation energy:                                               1.542314 eV
  Excitation energy:                                               0.605285 eV
  Excitation energy:                                               3.619269 eV
  Excitation energy:                                               3.385842 eV
  Excitation energy:                                               3.195198 eV
  Excitation energy:                                               2.596381 eV
  Excitation energy:                                               2.185333 eV
  Excitation energy:                                               1.825283 eV
  Excitation energy:                                               0.888254 eV
  Excitation energy:                                               0.282969 eV
  Excitation energy:                                               3.776348 eV
  Excitation energy:                                               3.542921 eV
  Excitation energy:                                               3.352277 eV
  Excitation energy:                                               2.753460 eV
  Excitation energy:                                               2.342412 eV
  Excitation energy:                                               1.982362 eV
  Excitation energy:                                               1.045333 eV
  Excitation energy:                                               0.440048 eV
  Excitation energy:                                               0.157079 eV

                    Orbital Energies (a.u.)
 --------------------------------------------------------------

 Alpha MOs
 -- Occupied --
-11.2391 -11.2375  -1.0292  -0.7864  -0.6347  -0.5823  -0.4999  -0.3739

          Ground-State Mulliken Net Atomic Charges

     Atom                 Charge (a.u.)
  ----------------------------------------
      1 H                     0.052491
      2 C                    -0.104987
      3 H                     0.052501
      4 C                    -0.104994
      5 H                     0.052500
      6 H                     0.052489
  ----------------------------------------
  Sum of atomic charges =     0.000000

                    Cartesian Multipole Moments
 -----------------------------------------------------------------
    Charge (ESU x 10^10)
                -0.0000
    Dipole Moment (Debye)
         X      -0.0000      Y       0.0000      Z       0.0000
       Tot       0.0000
    Quadrupole Moments (Debye-Ang)
        XX     -12.2411     XY      -0.1161     YY     -12.2562
        XZ       0.1559     YZ       0.1987     ZZ     -15.6165

 Total job time:  119.44s(wall), 361.92s(cpu)
        *  Thank you very much for using Q-Chem.  Have a nice day.  *
