 Q-Chem 5.4 (devel), Q-Chem, Inc., Pleasanton, CA (2021)
 Q-Chem 5.4.1 for Intel X86 EM64T Linux

User input:
--------------------------------------------------------------
$comment
generated from CCJob.Templates
$end

$rem
sym_ignore = true
method = adc(2)
ee_states = 10
basis = cc-pVDZ
mem_static = 1024
mem_total = 40000
adc_davidson_maxiter = 900
adc_davidson_conv = 6
adc_print = 3
adc_prop_es = true
adc_prop_es2es = true
adc_prop_tpa = true
molden_format = True
state_analysis = true
print_orbitals = 15
gen_scfman = false
fde_export_density = true
fde_details = 3
$end

$molecule
0 1
H -0.0348278765 -0.2442097827 0.0636489606
C -1.0765972949 -0.5242748755 -0.0023551776
H -1.313264467 -1.5767591607 -0.0757276926
C -2.043634118 0.3926884087 0.0061254933
H -1.8137616575 1.4459188338 0.0804456828
H -3.0759772930000002 0.114931858 -0.0593381042
$end
--------------------------------------------------------------

             Standard Nuclear Orientation (Angstroms)
    I     Atom           X                Y                Z
 ----------------------------------------------------------------
    1      H      -0.0348278765    -0.2442097827     0.0636489606
    2      C      -1.0765972949    -0.5242748755    -0.0023551776
    3      H      -1.3132644670    -1.5767591607    -0.0757276926
    4      C      -2.0436341180     0.3926884087     0.0061254933
    5      H      -1.8137616575     1.4459188338     0.0804456828
    6      H      -3.0759772930     0.1149318580    -0.0593381042
 ----------------------------------------------------------------

   11     -78.0398180781      7.87E-09 Convergence criterion met
 Total energy in the final basis set = -78.03981808
  Excited state 1 (singlet, A)                                     [converged]
  Term symbol:  2 (1) A                                     R^2 =  1.83729e-13
  Excitation energy:                                               8.736679 eV
  Excited state 2 (singlet, A)                                     [converged]
  Term symbol:  3 (1) A                                     R^2 =  3.63940e-13
  Excitation energy:                                               9.069005 eV
  Excited state 3 (singlet, A)                                     [converged]
  Term symbol:  4 (1) A                                     R^2 =  1.09936e-13
  Excitation energy:                                               9.177685 eV
  Excited state 4 (singlet, A)                                     [converged]
  Term symbol:  5 (1) A                                     R^2 =  6.65982e-13
  Excitation energy:                                               9.849290 eV
  Excited state 5 (singlet, A)                                     [converged]
  Term symbol:  6 (1) A                                     R^2 =  2.13192e-13
  Excitation energy:                                              10.220144 eV
  Excited state 6 (singlet, A)                                     [converged]
  Term symbol:  7 (1) A                                     R^2 =  3.21440e-13
  Excitation energy:                                              10.541416 eV
  Excited state 7 (singlet, A)                                     [converged]
  Term symbol:  8 (1) A                                     R^2 =  9.62516e-10
  Excitation energy:                                              11.578749 eV
  Excited state 8 (singlet, A)                                     [converged]
  Term symbol:  9 (1) A                                     R^2 =  3.15157e-11
  Excitation energy:                                              12.177447 eV
  Excited state 9 (singlet, A)                                     [converged]
  Term symbol:  10 (1) A                                    R^2 =  3.74820e-10
  Excitation energy:                                              12.427921 eV
  Excited state 10 (singlet, A)                                     [converged]
  Term symbol:  11 (1) A                                    R^2 =  8.13897e-07
  Excitation energy:                                              12.673666 eV
  Excitation energy:                                               0.332326 eV
  Excitation energy:                                               0.441006 eV
  Excitation energy:                                               0.108680 eV
  Excitation energy:                                               1.112611 eV
  Excitation energy:                                               0.780285 eV
  Excitation energy:                                               0.671605 eV
  Excitation energy:                                               1.483466 eV
  Excitation energy:                                               1.151140 eV
  Excitation energy:                                               1.042460 eV
  Excitation energy:                                               0.370854 eV
  Excitation energy:                                               1.804737 eV
  Excitation energy:                                               1.472411 eV
  Excitation energy:                                               1.363731 eV
  Excitation energy:                                               0.692126 eV
  Excitation energy:                                               0.321271 eV
  Excitation energy:                                               2.842071 eV
  Excitation energy:                                               2.509745 eV
  Excitation energy:                                               2.401065 eV
  Excitation energy:                                               1.729459 eV
  Excitation energy:                                               1.358605 eV
  Excitation energy:                                               1.037334 eV
  Excitation energy:                                               3.440768 eV
  Excitation energy:                                               3.108442 eV
  Excitation energy:                                               2.999762 eV
  Excitation energy:                                               2.328157 eV
  Excitation energy:                                               1.957302 eV
  Excitation energy:                                               1.636031 eV
  Excitation energy:                                               0.598697 eV
  Excitation energy:                                               3.691242 eV
  Excitation energy:                                               3.358916 eV
  Excitation energy:                                               3.250236 eV
  Excitation energy:                                               2.578631 eV
  Excitation energy:                                               2.207776 eV
  Excitation energy:                                               1.886505 eV
  Excitation energy:                                               0.849171 eV
  Excitation energy:                                               0.250474 eV
  Excitation energy:                                               3.936987 eV
  Excitation energy:                                               3.604661 eV
  Excitation energy:                                               3.495981 eV
  Excitation energy:                                               2.824376 eV
  Excitation energy:                                               2.453522 eV
  Excitation energy:                                               2.132250 eV
  Excitation energy:                                               1.094917 eV
  Excitation energy:                                               0.496219 eV
  Excitation energy:                                               0.245746 eV

                    Orbital Energies (a.u.)
 --------------------------------------------------------------

 Alpha MOs
 -- Occupied --
-11.2347 -11.2327  -1.0327  -0.7907  -0.6420  -0.5821  -0.5054  -0.3739

          Ground-State Mulliken Net Atomic Charges

     Atom                 Charge (a.u.)
  ----------------------------------------
      1 H                     0.047933
      2 C                    -0.096747
      3 H                     0.047508
      4 C                    -0.090383
      5 H                     0.046883
      6 H                     0.044806
  ----------------------------------------
  Sum of atomic charges =     0.000000

                    Cartesian Multipole Moments
 -----------------------------------------------------------------
    Charge (ESU x 10^10)
                 0.0000
    Dipole Moment (Debye)
         X      -0.0059      Y       0.0008      Z       0.0006
       Tot       0.0060
    Quadrupole Moments (Debye-Ang)
        XX     -12.2004     XY      -0.0558     YY     -12.2623
        XZ       0.1537     YZ       0.1931     ZZ     -15.5289

 Total job time:  69.70s(wall), 183.61s(cpu)
        *  Thank you very much for using Q-Chem.  Have a nice day.  *
