 Q-Chem 5.4 (devel), Q-Chem, Inc., Pleasanton, CA (2021)
 Q-Chem 5.4.1 for Intel X86 EM64T Linux

User input:
--------------------------------------------------------------
$comment
generated from CCJob.Templates
$end

$rem
sym_ignore = true
method = adc(2)
ee_states = 10
basis = cc-pVDZ
mem_static = 1024
mem_total = 40000
adc_davidson_maxiter = 900
adc_davidson_conv = 6
adc_print = 3
adc_prop_es = true
adc_prop_es2es = true
adc_prop_tpa = true
molden_format = True
state_analysis = true
print_orbitals = 15
gen_scfman = false
fde_export_density = true
fde_details = 3
$end

$molecule
0 1
H -0.0348278765 -0.2442097827 0.0636489606
C -1.0765972949 -0.5242748755 0.0076448224
H -1.313264467 -1.5767591607 -0.0757276926
C -2.043634118 0.3926884087 0.0061254933
H -1.8137616575 1.4459188338 0.0804456828
H -3.085977293 0.114931858 -0.0593381042
$end
--------------------------------------------------------------

             Standard Nuclear Orientation (Angstroms)
    I     Atom           X                Y                Z
 ----------------------------------------------------------------
    1      H      -0.0348278765    -0.2442097827     0.0636489606
    2      C      -1.0765972949    -0.5242748755     0.0076448224
    3      H      -1.3132644670    -1.5767591607    -0.0757276926
    4      C      -2.0436341180     0.3926884087     0.0061254933
    5      H      -1.8137616575     1.4459188338     0.0804456828
    6      H      -3.0859772930     0.1149318580    -0.0593381042
 ----------------------------------------------------------------

   11     -78.0399021630      3.91E-09 Convergence criterion met
 Total energy in the final basis set = -78.03990216
  Excited state 1 (singlet, A)                                     [converged]
  Term symbol:  2 (1) A                                     R^2 =  8.07435e-14
  Excitation energy:                                               8.736900 eV
  Excited state 2 (singlet, A)                                     [converged]
  Term symbol:  3 (1) A                                     R^2 =  6.06358e-14
  Excitation energy:                                               9.053166 eV
  Excited state 3 (singlet, A)                                     [converged]
  Term symbol:  4 (1) A                                     R^2 =  1.90736e-13
  Excitation energy:                                               9.171081 eV
  Excited state 4 (singlet, A)                                     [converged]
  Term symbol:  5 (1) A                                     R^2 =  1.18957e-13
  Excitation energy:                                               9.833369 eV
  Excited state 5 (singlet, A)                                     [converged]
  Term symbol:  6 (1) A                                     R^2 =  3.73792e-13
  Excitation energy:                                              10.212080 eV
  Excited state 6 (singlet, A)                                     [converged]
  Term symbol:  7 (1) A                                     R^2 =  6.07607e-13
  Excitation energy:                                              10.535743 eV
  Excited state 7 (singlet, A)                                     [converged]
  Term symbol:  8 (1) A                                     R^2 =  6.72018e-11
  Excitation energy:                                              11.555998 eV
  Excited state 8 (singlet, A)                                     [converged]
  Term symbol:  9 (1) A                                     R^2 =  1.29997e-09
  Excitation energy:                                              12.165010 eV
  Excited state 9 (singlet, A)                                     [converged]
  Term symbol:  10 (1) A                                    R^2 =  2.09521e-08
  Excitation energy:                                              12.416793 eV
  Excited state 10 (singlet, A)                                     [converged]
  Term symbol:  11 (1) A                                    R^2 =  9.57954e-07
  Excitation energy:                                              12.644792 eV
  Excitation energy:                                               0.316267 eV
  Excitation energy:                                               0.434181 eV
  Excitation energy:                                               0.117914 eV
  Excitation energy:                                               1.096469 eV
  Excitation energy:                                               0.780202 eV
  Excitation energy:                                               0.662288 eV
  Excitation energy:                                               1.475180 eV
  Excitation energy:                                               1.158913 eV
  Excitation energy:                                               1.040999 eV
  Excitation energy:                                               0.378711 eV
  Excitation energy:                                               1.798843 eV
  Excitation energy:                                               1.482576 eV
  Excitation energy:                                               1.364662 eV
  Excitation energy:                                               0.702374 eV
  Excitation energy:                                               0.323663 eV
  Excitation energy:                                               2.819098 eV
  Excitation energy:                                               2.502831 eV
  Excitation energy:                                               2.384917 eV
  Excitation energy:                                               1.722629 eV
  Excitation energy:                                               1.343918 eV
  Excitation energy:                                               1.020255 eV
  Excitation energy:                                               3.428110 eV
  Excitation energy:                                               3.111844 eV
  Excitation energy:                                               2.993929 eV
  Excitation energy:                                               2.331641 eV
  Excitation energy:                                               1.952930 eV
  Excitation energy:                                               1.629267 eV
  Excitation energy:                                               0.609012 eV
  Excitation energy:                                               3.679894 eV
  Excitation energy:                                               3.363627 eV
  Excitation energy:                                               3.245713 eV
  Excitation energy:                                               2.583425 eV
  Excitation energy:                                               2.204714 eV
  Excitation energy:                                               1.881051 eV
  Excitation energy:                                               0.860796 eV
  Excitation energy:                                               0.251784 eV
  Excitation energy:                                               3.907892 eV
  Excitation energy:                                               3.591626 eV
  Excitation energy:                                               3.473711 eV
  Excitation energy:                                               2.811423 eV
  Excitation energy:                                               2.432712 eV
  Excitation energy:                                               2.109049 eV
  Excitation energy:                                               1.088794 eV
  Excitation energy:                                               0.479782 eV
  Excitation energy:                                               0.227999 eV

                    Orbital Energies (a.u.)
 --------------------------------------------------------------

 Alpha MOs
 -- Occupied --
-11.2351 -11.2334  -1.0323  -0.7898  -0.6411  -0.5819  -0.5046  -0.3740

          Ground-State Mulliken Net Atomic Charges

     Atom                 Charge (a.u.)
  ----------------------------------------
      1 H                     0.048035
      2 C                    -0.095251
      3 H                     0.047789
      4 C                    -0.095442
      5 H                     0.047163
      6 H                     0.047706
  ----------------------------------------
  Sum of atomic charges =     0.000000

                    Cartesian Multipole Moments
 -----------------------------------------------------------------
    Charge (ESU x 10^10)
                -0.0000
    Dipole Moment (Debye)
         X      -0.0011      Y       0.0031      Z      -0.0127
       Tot       0.0131
    Quadrupole Moments (Debye-Ang)
        XX     -12.2120     XY      -0.0606     YY     -12.2727
        XZ       0.1684     YZ       0.1999     ZZ     -15.5410

 Total job time:  76.79s(wall), 204.00s(cpu)
        *  Thank you very much for using Q-Chem.  Have a nice day.  *
